# vtk DataFile Version 3.0
d:\study\Notebook\Juno\MPC\Git\examples\lid_driven_cavity_flow\2D_Cavity_Flow.vtk
ASCII
DATASET UNSTRUCTURED_GRID
POINTS 4961 float
0.0 0.0 0.0
0.0 0.02500000037252903 0.0
0.0 0.05000000074505806 0.0
0.0 0.07500000298023224 0.0
0.0 0.10000000149011612 0.0
0.0 0.125 0.0
0.0 0.15000000596046448 0.0
0.0 0.17499999701976776 0.0
0.0 0.20000000298023224 0.0
0.0 0.22499999403953552 0.0
0.0 0.25 0.0
0.0 0.2750000059604645 0.0
0.0 0.30000001192092896 0.0
0.0 0.32499998807907104 0.0
0.0 0.3499999940395355 0.0
0.0 0.375 0.0
0.0 0.4000000059604645 0.0
0.0 0.42500001192092896 0.0
0.0 0.44999998807907104 0.0
0.0 0.4749999940395355 0.0
0.0 0.5 0.0
0.0 0.5249999761581421 0.0
0.0 0.550000011920929 0.0
0.0 0.574999988079071 0.0
0.0 0.6000000238418579 0.0
0.0 0.625 0.0
0.0 0.6499999761581421 0.0
0.0 0.675000011920929 0.0
0.0 0.699999988079071 0.0
0.0 0.7250000238418579 0.0
0.0 0.75 0.0
0.0 0.7749999761581421 0.0
0.0 0.800000011920929 0.0
0.0 0.824999988079071 0.0
0.0 0.8500000238418579 0.0
0.0 0.875 0.0
0.0 0.8999999761581421 0.0
0.0 0.925000011920929 0.0
0.0 0.949999988079071 0.0
0.0 0.9750000238418579 0.0
0.0 1.0 0.0
0.02500000037252903 0.0 0.0
0.02500000037252903 0.02500000037252903 0.0
0.02500000037252903 0.05000000074505806 0.0
0.02500000037252903 0.07500000298023224 0.0
0.02500000037252903 0.10000000149011612 0.0
0.02500000037252903 0.125 0.0
0.02500000037252903 0.15000000596046448 0.0
0.02500000037252903 0.17499999701976776 0.0
0.02500000037252903 0.20000000298023224 0.0
0.02500000037252903 0.22499999403953552 0.0
0.02500000037252903 0.25 0.0
0.02500000037252903 0.2750000059604645 0.0
0.02500000037252903 0.30000001192092896 0.0
0.02500000037252903 0.32499998807907104 0.0
0.02500000037252903 0.3499999940395355 0.0
0.02500000037252903 0.375 0.0
0.02500000037252903 0.4000000059604645 0.0
0.02500000037252903 0.42500001192092896 0.0
0.02500000037252903 0.44999998807907104 0.0
0.02500000037252903 0.4749999940395355 0.0
0.02500000037252903 0.5 0.0
0.02500000037252903 0.5249999761581421 0.0
0.02500000037252903 0.550000011920929 0.0
0.02500000037252903 0.574999988079071 0.0
0.02500000037252903 0.6000000238418579 0.0
0.02500000037252903 0.625 0.0
0.02500000037252903 0.6499999761581421 0.0
0.02500000037252903 0.675000011920929 0.0
0.02500000037252903 0.699999988079071 0.0
0.02500000037252903 0.7250000238418579 0.0
0.02500000037252903 0.75 0.0
0.02500000037252903 0.7749999761581421 0.0
0.02500000037252903 0.800000011920929 0.0
0.02500000037252903 0.824999988079071 0.0
0.02500000037252903 0.8500000238418579 0.0
0.02500000037252903 0.875 0.0
0.02500000037252903 0.8999999761581421 0.0
0.02500000037252903 0.925000011920929 0.0
0.02500000037252903 0.949999988079071 0.0
0.02500000037252903 0.9750000238418579 0.0
0.02500000037252903 1.0 0.0
0.05000000074505806 0.0 0.0
0.05000000074505806 0.02500000037252903 0.0
0.05000000074505806 0.05000000074505806 0.0
0.05000000074505806 0.07500000298023224 0.0
0.05000000074505806 0.10000000149011612 0.0
0.05000000074505806 0.125 0.0
0.05000000074505806 0.15000000596046448 0.0
0.05000000074505806 0.17499999701976776 0.0
0.05000000074505806 0.20000000298023224 0.0
0.05000000074505806 0.22499999403953552 0.0
0.05000000074505806 0.25 0.0
0.05000000074505806 0.2750000059604645 0.0
0.05000000074505806 0.30000001192092896 0.0
0.05000000074505806 0.32499998807907104 0.0
0.05000000074505806 0.3499999940395355 0.0
0.05000000074505806 0.375 0.0
0.05000000074505806 0.4000000059604645 0.0
0.05000000074505806 0.42500001192092896 0.0
0.05000000074505806 0.44999998807907104 0.0
0.05000000074505806 0.4749999940395355 0.0
0.05000000074505806 0.5 0.0
0.05000000074505806 0.5249999761581421 0.0
0.05000000074505806 0.550000011920929 0.0
0.05000000074505806 0.574999988079071 0.0
0.05000000074505806 0.6000000238418579 0.0
0.05000000074505806 0.625 0.0
0.05000000074505806 0.6499999761581421 0.0
0.05000000074505806 0.675000011920929 0.0
0.05000000074505806 0.699999988079071 0.0
0.05000000074505806 0.7250000238418579 0.0
0.05000000074505806 0.75 0.0
0.05000000074505806 0.7749999761581421 0.0
0.05000000074505806 0.800000011920929 0.0
0.05000000074505806 0.824999988079071 0.0
0.05000000074505806 0.8500000238418579 0.0
0.05000000074505806 0.875 0.0
0.05000000074505806 0.8999999761581421 0.0
0.05000000074505806 0.925000011920929 0.0
0.05000000074505806 0.949999988079071 0.0
0.05000000074505806 0.9750000238418579 0.0
0.05000000074505806 1.0 0.0
0.07500000298023224 0.0 0.0
0.07500000298023224 0.02500000037252903 0.0
0.07500000298023224 0.05000000074505806 0.0
0.07500000298023224 0.07500000298023224 0.0
0.07500000298023224 0.10000000149011612 0.0
0.07500000298023224 0.125 0.0
0.07500000298023224 0.15000000596046448 0.0
0.07500000298023224 0.17499999701976776 0.0
0.07500000298023224 0.20000000298023224 0.0
0.07500000298023224 0.22499999403953552 0.0
0.07500000298023224 0.25 0.0
0.07500000298023224 0.2750000059604645 0.0
0.07500000298023224 0.30000001192092896 0.0
0.07500000298023224 0.32499998807907104 0.0
0.07500000298023224 0.3499999940395355 0.0
0.07500000298023224 0.375 0.0
0.07500000298023224 0.4000000059604645 0.0
0.07500000298023224 0.42500001192092896 0.0
0.07500000298023224 0.44999998807907104 0.0
0.07500000298023224 0.4749999940395355 0.0
0.07500000298023224 0.5 0.0
0.07500000298023224 0.5249999761581421 0.0
0.07500000298023224 0.550000011920929 0.0
0.07500000298023224 0.574999988079071 0.0
0.07500000298023224 0.6000000238418579 0.0
0.07500000298023224 0.625 0.0
0.07500000298023224 0.6499999761581421 0.0
0.07500000298023224 0.675000011920929 0.0
0.07500000298023224 0.699999988079071 0.0
0.07500000298023224 0.7250000238418579 0.0
0.07500000298023224 0.75 0.0
0.07500000298023224 0.7749999761581421 0.0
0.07500000298023224 0.800000011920929 0.0
0.07500000298023224 0.824999988079071 0.0
0.07500000298023224 0.8500000238418579 0.0
0.07500000298023224 0.875 0.0
0.07500000298023224 0.8999999761581421 0.0
0.07500000298023224 0.925000011920929 0.0
0.07500000298023224 0.949999988079071 0.0
0.07500000298023224 0.9750000238418579 0.0
0.07500000298023224 1.0 0.0
0.10000000149011612 0.0 0.0
0.10000000149011612 0.02500000037252903 0.0
0.10000000149011612 0.05000000074505806 0.0
0.10000000149011612 0.07500000298023224 0.0
0.10000000149011612 0.10000000149011612 0.0
0.10000000149011612 0.125 0.0
0.10000000149011612 0.15000000596046448 0.0
0.10000000149011612 0.17499999701976776 0.0
0.10000000149011612 0.20000000298023224 0.0
0.10000000149011612 0.22499999403953552 0.0
0.10000000149011612 0.25 0.0
0.10000000149011612 0.2750000059604645 0.0
0.10000000149011612 0.30000001192092896 0.0
0.10000000149011612 0.32499998807907104 0.0
0.10000000149011612 0.3499999940395355 0.0
0.10000000149011612 0.375 0.0
0.10000000149011612 0.4000000059604645 0.0
0.10000000149011612 0.42500001192092896 0.0
0.10000000149011612 0.44999998807907104 0.0
0.10000000149011612 0.4749999940395355 0.0
0.10000000149011612 0.5 0.0
0.10000000149011612 0.5249999761581421 0.0
0.10000000149011612 0.550000011920929 0.0
0.10000000149011612 0.574999988079071 0.0
0.10000000149011612 0.6000000238418579 0.0
0.10000000149011612 0.625 0.0
0.10000000149011612 0.6499999761581421 0.0
0.10000000149011612 0.675000011920929 0.0
0.10000000149011612 0.699999988079071 0.0
0.10000000149011612 0.7250000238418579 0.0
0.10000000149011612 0.75 0.0
0.10000000149011612 0.7749999761581421 0.0
0.10000000149011612 0.800000011920929 0.0
0.10000000149011612 0.824999988079071 0.0
0.10000000149011612 0.8500000238418579 0.0
0.10000000149011612 0.875 0.0
0.10000000149011612 0.8999999761581421 0.0
0.10000000149011612 0.925000011920929 0.0
0.10000000149011612 0.949999988079071 0.0
0.10000000149011612 0.9750000238418579 0.0
0.10000000149011612 1.0 0.0
0.125 0.0 0.0
0.125 0.02500000037252903 0.0
0.125 0.05000000074505806 0.0
0.125 0.07500000298023224 0.0
0.125 0.10000000149011612 0.0
0.125 0.125 0.0
0.125 0.15000000596046448 0.0
0.125 0.17499999701976776 0.0
0.125 0.20000000298023224 0.0
0.125 0.22499999403953552 0.0
0.125 0.25 0.0
0.125 0.2750000059604645 0.0
0.125 0.30000001192092896 0.0
0.125 0.32499998807907104 0.0
0.125 0.3499999940395355 0.0
0.125 0.375 0.0
0.125 0.4000000059604645 0.0
0.125 0.42500001192092896 0.0
0.125 0.44999998807907104 0.0
0.125 0.4749999940395355 0.0
0.125 0.5 0.0
0.125 0.5249999761581421 0.0
0.125 0.550000011920929 0.0
0.125 0.574999988079071 0.0
0.125 0.6000000238418579 0.0
0.125 0.625 0.0
0.125 0.6499999761581421 0.0
0.125 0.675000011920929 0.0
0.125 0.699999988079071 0.0
0.125 0.7250000238418579 0.0
0.125 0.75 0.0
0.125 0.7749999761581421 0.0
0.125 0.800000011920929 0.0
0.125 0.824999988079071 0.0
0.125 0.8500000238418579 0.0
0.125 0.875 0.0
0.125 0.8999999761581421 0.0
0.125 0.925000011920929 0.0
0.125 0.949999988079071 0.0
0.125 0.9750000238418579 0.0
0.125 1.0 0.0
0.15000000596046448 0.0 0.0
0.15000000596046448 0.02500000037252903 0.0
0.15000000596046448 0.05000000074505806 0.0
0.15000000596046448 0.07500000298023224 0.0
0.15000000596046448 0.10000000149011612 0.0
0.15000000596046448 0.125 0.0
0.15000000596046448 0.15000000596046448 0.0
0.15000000596046448 0.17499999701976776 0.0
0.15000000596046448 0.20000000298023224 0.0
0.15000000596046448 0.22499999403953552 0.0
0.15000000596046448 0.25 0.0
0.15000000596046448 0.2750000059604645 0.0
0.15000000596046448 0.30000001192092896 0.0
0.15000000596046448 0.32499998807907104 0.0
0.15000000596046448 0.3499999940395355 0.0
0.15000000596046448 0.375 0.0
0.15000000596046448 0.4000000059604645 0.0
0.15000000596046448 0.42500001192092896 0.0
0.15000000596046448 0.44999998807907104 0.0
0.15000000596046448 0.4749999940395355 0.0
0.15000000596046448 0.5 0.0
0.15000000596046448 0.5249999761581421 0.0
0.15000000596046448 0.550000011920929 0.0
0.15000000596046448 0.574999988079071 0.0
0.15000000596046448 0.6000000238418579 0.0
0.15000000596046448 0.625 0.0
0.15000000596046448 0.6499999761581421 0.0
0.15000000596046448 0.675000011920929 0.0
0.15000000596046448 0.699999988079071 0.0
0.15000000596046448 0.7250000238418579 0.0
[...]
POINT_DATA 4961
SCALARS u1 float 1
LOOKUP_TABLE default
-0.00025359946112679665
-0.00012660954933041424
-9.976187259752578e-5
-8.478794214550334e-5
-7.640632962591098e-5
-6.916141163415546e-5
-6.086028310647862e-5
-5.159316124547786e-5
-4.291748822993213e-5
-3.651374315793987e-5
-3.336935607478608e-5
-3.346538863979731e-5
-3.592243504257908e-5
-3.9406411826092835e-5
-4.257802630736052e-5
-4.44277911295643e-5
-4.4435834916534134e-5
-4.256940638924789e-5
-3.9183846508805686e-5
-3.487612419839081e-5
-3.0340998318223455e-5
-2.6247687349822968e-5
-2.314725568197673e-5
-2.140476712853001e-5
-2.1160917539564394e-5
-2.232003696356344e-5
-2.4588430616034884e-5
-2.755165674983573e-5
-3.085197262819861e-5
-3.435322754086201e-5
-3.872376486224738e-5
-4.5464713147591596e-5
-6.032226338437141e-5
-8.792033764315477e-5
-0.00016615853997681285
-0.000208815055704914
-0.0008632933147478816
0.001667491668711385
-0.006765162096314725
0.05041203060168975
0.30273280155950033
-0.00015880665841994102
0.0006599253638626124
0.0008888492807415105
0.0006201286854405907
-2.0626219992436745e-5
-0.0009853373063037907
-0.002233588121498542
-0.0036933517408215266
-0.005248538528121571
-0.006749524317910982
-0.008036313254251581
-0.008965259214619437
-0.009431415825474687
-0.00938158328267491
-0.00881668105762401
-0.007785107297479499
-0.006370488251548068
-0.0046775269282761656
-0.0028189581128117425
-0.0009053585843048495
0.0009616269646812725
0.002693136188099743
0.004214947351556475
0.005468419605904273
0.00641139864550766
0.007019410621865063
0.007286805946023378
0.007227132503885514
0.006870973958257309
0.006260942691142191
0.005441056585961945
0.0044405484194953715
0.003248232059604561
0.0017279386426025667
-0.00037576441181386144
-0.004302575718412527
-0.009725855921146831
-0.028334215425502407
-0.02619101157398518
-0.11349365509704512
0.7526635055865256
-8.172252406657421e-5
0.002235918977831375
0.002585567108212672
0.0014397376969483844
-0.0009044259489883189
-0.004251011766200463
-0.008400836290547886
-0.013067741059444415
-0.017869368650281103
-0.022368903351889458
-0.02613925855348498
-0.028824835746490862
-0.03018491954298952
-0.03011203423193365
-0.028626688239228315
-0.02585511299503196
-0.02199852582589301
-0.017301703662951695
-0.012026419537960464
-0.006432483722619509
-0.0007667652353120502
0.004741467574149283
0.009881456630864704
0.014460931787198206
0.01830808753356905
0.021276907048559224
0.023256506480720418
0.024182139529330016
0.024044302003630946
0.022888851929678822
0.020801613900189864
0.01786763939901448
0.014083313779337914
0.009230837023096683
0.002461106291093529
-0.007603319276114462
-0.02542213999379328
-0.05167466449370295
-0.09267119131163781
-0.06486273249174701
0.9599186056957478
3.081240972591104e-6
0.0036482632554566408
0.0036962382764045287
0.001025351078624226
-0.003818077902224104
-0.010408924947114429
-0.018275530257596984
-0.02681952284547151
-0.03533097322542744
-0.04306831968642655
-0.04935861977355671
-0.05368315260420786
-0.055728164450556505
-0.05539527535256639
-0.05277773203670222
-0.048115019323631714
-0.041739617316579825
-0.03402736514590288
-0.02535894218544854
-0.016095609095643226
-0.006569019571543322
0.0029178534077800578
0.012082657807695796
0.020652820642681036
0.02835693319661914
0.03492198775529687
0.04008043895373703
0.04358772099476482
0.04524825276166666
0.04494037097720138
0.042627625915429235
0.0383249842608393
0.03201734599929296
0.023414489140577643
0.011748117633032962
-0.005019697272473422
-0.029624086804005856
-0.06479752619418377
-0.10388228103238362
0.0073249720635431
1.0124592323679735
3.909682713665319e-5
0.004347554013520494
0.003486294100994769
-0.0013662179380844464
-0.009384838768710324
-0.019844741070073724
-0.0319268989333068
-0.044655811736447504
-0.05695510340228793
-0.06777244524346315
-0.07621700035451795
-0.08166331109896419
-0.083798289853803
-0.08261053114438255
-0.07833664435929677
-0.07138499992470315
-0.06225605987378913
-0.05147374273019523
-0.039536115182954745
-0.026887666081165662
-0.01391124505244079
-0.0009347952327516396
0.011752232268918306
0.023877353282387048
0.03516317889898346
0.04530841859559587
0.05397682179136609
0.06079851378308376
0.06538710767836164
0.06737399175290193
0.06644524735406776
0.062366517098098484
0.0549341044461471
0.04385868032659346
0.028450561982026557
0.0074026418587891385
-0.021281042088503455
-0.0586092575724706
-0.08730451521114446
0.06769582286688092
1.0298103691531537
4.698741551134589e-5
0.004110955810119776
0.0015996675836618124
-0.006140391742974316
-0.018003711169196635
-0.03290702602657802
-0.04960600678168703
-0.0666746402894205
-0.08262557744092192
-0.09609965649360674
-0.10604253104247618
-0.11181112263875548
-0.11319392835866893
-0.11035976369566924
-0.10376206162982271
-0.09402624457652564
-0.0818432023911555
-0.06788527795833943
-0.05275256677668949
-0.03694905873271637
-0.020882933749817312
-0.0048825898738869
0.010778901068988489
0.025855961167053465
0.04010330810706364
0.053249934877385385
0.06497681976725289
0.07489964201522525
0.08256207726117282
0.08744532402670302
0.08899941838103587
0.0866876612615215
0.08002463834782247
0.06855685300070036
0.0517644314941208
0.02892090886416554
-0.0007963763819134329
-0.03692229395187496
-0.056812074530398604
0.12057376432858291
1.0325323526189116
4.622541186888318e-5
0.002910765591650488
-0.002114013645268642
-0.013547402957556187
-0.029980156415604142
-0.049884701080372906
-0.0714817988264258
-0.0928107126201212
-0.11195724211574998
-0.12731817373423837
-0.13779155551310396
-0.14284779642548528
-0.1424958631323534
-0.13717850002649357
-0.12762909847333503
-0.11472044803622339
-0.09933284509679652
-0.0822609131992067
-0.0641650798424962
-0.045561671973132434
-0.026839839720196323
-0.008292401234939462
0.00984877759583469
0.027378321324405874
0.04408738160964276
0.05973752135105315
0.07403898693883093
0.08663130296918098
0.09706659137555107
0.10479910281537741
0.10918807759912852
0.10952573843997016
0.10509357193768665
0.0952375529868732
0.0794219733288628
0.05728231413104368
0.028740974878019188
-0.004587460295851997
-0.01825025620200904
0.16929606080339
1.0308385235268105
5.4386412688067765e-5
0.0007548746591279354
-0.007752045296911092
-0.023788192352185433
-0.04553916800614388
-0.07088929672318045
-0.09739595490827924
-0.1225246368048829
-0.14400966195535148
-0.16015284786408301
-0.16996547623421066
-0.1731687525389134
-0.17010015311461757
-0.161555659780106
-0.14859404028356948
-0.1323420132969204
-0.11384033586000442
-0.09395333130851213
-0.0733402216246759
-0.05247095969389193
-0.03166624283767305
-0.011144929354486521
0.008930514184612548
0.02841424364305567
0.04714477333618561
0.06491841813112842
0.08146909509741818
0.09645241814359906
0.10943327472705278
0.11987609174775571
0.12713859648886228
0.1304786701384728
0.12909088705964678
0.12219103291863576
0.10914983830480196
0.08965822135360213
0.06394797025041044
0.034158252781395504
0.025158733487842255
0.21590105621362454
1.0283351279602613
7.941576480519075e-5
-0.002398028940575614
-0.015440129599483043
-0.03702387765315507
-0.06473577151882637
-0.09568600062993937
-0.12669121528597316
-0.15472716013755416
-0.17736531903210562
-0.19300358727196
-0.2009105066972552
-0.20116800368850818
-0.19453585524570371
-0.18223164992741658
-0.1656621226338757
-0.14617898479764335
-0.12491743161081104
-0.10273190624059225
-0.08020724191374029
-0.05771074560470879
-0.0354569278715644
-0.013567684814915992
0.007878026728576515
0.028804558474803343
0.049108567254734226
0.06863279434492142
0.08714505350144464
0.10432155095259077
0.11973624663733062
0.1328571843860118
0.14304826524312375
0.14957800862430304
0.15164280036333366
0.1484258312611928
0.1392199477959366
0.12362067103640584
0.10181484425629606
0.07602211487346722
0.07097183428049902
0.2614084742453997
1.026216930642228
0.00012191149976992222
-0.006650943783682806
-0.025317195968455053
-0.05329600722598116
-0.08731901138708054
-0.12357611280822312
-0.1582144944331958
-0.18795340167707764
-0.21043272047973005
-0.22428784850490047
-0.22913665031228447
-0.22552240335789975
-0.2147278601432845
-0.1984447819959314
-0.1784055126036037
-0.1561041881377605
-0.1326645623994409
-0.10883543114505301
-0.08505912311920838
-0.06156224911683239
-0.03843875241727801
-0.01571364572737366
0.006611627073311865
0.02852632585199899
0.049985246780124726
0.07088545235365018
0.09104458444403463
0.11018019904076937
0.12789384962889017
0.14366484802712876
0.15685616392602242
0.16673396695114207
0.17249820075358002
0.1733293500783475
0.16847400712958915
0.15739803665513818
0.14008009444660274
0.11855413454577501
0.11730687421311359
0.3060270629493971
1.0246924549793164
0.0001779908139543096
-0.012127186877407325
-0.03745510127782836
-0.07241200817861682
-0.11264218989890651
-0.15343027306516888
-0.19052437800564803
-0.2206852975068614
-0.24176781217829557
-0.25269394415954594
-0.253515152107866
-0.2453714271177887
-0.23016931672373175
-0.21007357574853813
-0.1870456290998277
-0.16258378701968468
-0.13767387588814017
-0.11287294391149771
-0.08843888771662023
-0.0644497268658597
-0.040891231325986155
-0.017712576263875235
0.005140563268469123
0.02770483797758061
0.04998297921156336
0.07192568127356935
0.09341071964081493
0.11421826620244246
0.134006435120682
0.15229417512227883
0.1684587353047391
0.18175548459657875
0.1913584293833992
0.19641488561683218
0.19611417273699772
0.18979189951460285
0.1771812317192598
0.16003879123945808
0.16273776178377375
0.34949959623645555
1.0236154527306098
0.00024117614891849826
-0.01891028780931947
-0.051762591240731126
-0.0938622134981415
-0.13968428268708522
-0.18387803118821466
-0.22219326002232265
-0.25163071299903095
-0.27025308774318546
-0.2772915147452295
-0.27338104251248296
-0.26042222007527016
-0.2409896666322311
-0.21762424612461473
-0.19234625214994594
-0.16649507157853805
-0.140808790973324
-0.11560364080969521
-0.09094993814869667
-0.06679969177912426
-0.043062688597274246
-0.019644451820568065
0.003537337768193538
0.02654488248663256
0.04941359841359372
0.07214013408156461
0.09466395972231112
0.11684049960422271
0.13840871383399644
0.1589600726383651
0.1779184719598561
0.19454535433806086
0.20797668373779743
0.21728728243760997
0.22156682916102
0.22000369017769117
0.21209213355905376
0.19933091606344533
0.20623705880097987
0.39136245374356804
1.022760475942448
0.0003023701114877042
-0.026988858091726797
-0.06791321305980347
-0.1168110864045957
-0.16718754196699592
-0.21356705304424395
-0.2520472874457482
-0.2798452600836754
-0.2951381590901292
-0.29757211126343464
-0.2885863258270547
-0.27096063624776434
-0.24786904987558955
-0.22203821396942658
-0.19534582993583172
-0.1688326847506687
-0.14292845425734413
-0.11770850343873462
-0.09308787867303181
-0.06893456437683199
-0.04512132847958128
-0.021541502434956783
0.0018910652215708978
0.025245374423320754
0.048574596985417884
0.07190999265003484
0.09524638649600092
0.11851590109290555
0.14155061802972568
0.16403901508965646
0.1854852835958809
0.2051896718221542
0.2222657348465873
0.23570132122040377
0.2444482271821471
0.24751573164394358
0.24416377617308171
0.23570291521537
0.24710533676352497
0.4311193883740998
1.0219318061430727
0.00034934264018365857
-0.03621532105398728
-0.08531765381030709
-0.14017269680152822
-0.19386057492374675
-0.2413747595383029
-0.2792579311935697
-0.3047242965840269
-0.31603128141432535
-0.31346480064166826
-0.2994769985648418
-0.27772728918353096
-0.25180730363717885
-0.22439673187068365
-0.19705528696795227
-0.17044509679544717
-0.144686141742568
-0.11965415512531763
-0.09516139284096425
-0.07103782543708803
-0.04715286320646328
-0.02341006213100627
0.00026553962925390806
0.02393812135881035
0.0476675314782824
0.07150796460700803
0.09549817628794699
0.11963862543052528
0.1438534410031025
0.16793856132971996
0.19150234654807718
0.21391759041262048
0.2343077593086491
0.25158820267461124
0.26456024499202613
0.2720280787907541
0.2730137217367883
0.268725398247625
0.28490096353925765
0.4683376433558806
1.0209976452646572
0.00036722197534611034
-0.04628154498186632
-0.10314855407796131
-0.16275003464193105
-0.2185673175199554
-0.26649846986401826
-0.30331048715743236
-0.3259559923390043
-0.33288756347610615
-0.3253006654267665
-0.30676480746478774
-0.28169088517461205
-0.25384754644619534
-0.22565641423352645
-0.1982495749678037
-0.1718989456876443
-0.1464609283793834
-0.12167455499366042
-0.09730409067560686
-0.07317926747055026
-0.04918791571071779
-0.025254612584376446
-0.0013208661393946386
0.022668492170339505
0.046773860218536356
0.07106274924262834
0.09560483704945
0.12045454138751666
0.14561633542143682
0.17098999990503216
0.19629761390388012
0.2210090611170017
0.2442925151444797
0.26502311608601303
0.28186628840285266
0.2934154058166314
0.2984541796031408
0.29818306340894196
0.31937900528282626
0.5026907484443655
1.0198905272377488
0.00034068343951254576
-0.056715290699685283
-0.12041409447010665
-0.18339157027639885
-0.2404343439745844
-0.28842886500933673
-0.3239292211510474
-0.34348491537821246
-0.3459731490147533
-0.3337032027247915
-0.3113316909875721
-0.28381447980791563
-0.2548659615131328
-0.22650438870732614
-0.19940010808386432
-0.17347719484860136
-0.14839879910869058
-0.12383151066023856
-0.09953580491855973
-0.07536508475823211
-0.051234904773082235
-0.027092046875623055
-0.0028927184894200764
0.021410370439298276
0.04587625821807251
0.07057928903486754
0.0956084121380627
0.12105600774430059
0.14698937021057645
0.17339807683310937
0.20011370567954145
0.226714246069605
0.2524398331770499
0.27616219215440196
0.29644325668982674
0.31168231612537056
0.32043890134082176
0.3240144895098638
0.3504406807696796
0.5339680026372662
1.018594592020463
0.0002576280865014269
-0.06690157583761902
-0.13606376792267838
-0.20111407970216533
-0.2588594474527781
-0.30686683629392064
-0.3410156221871148
-0.3574769474216737
-0.35578401791281067
-0.3394352846516995
-0.31404451496200636
-0.28489601460751146
-0.2554777918558102
-0.2273393967334414
-0.20071667728188913
-0.1752568396150309
-0.15050174608404632
-0.12609726445225533
-0.10182832654754748
-0.07758243731404946
-0.053302929178244085
-0.028954362096555997
-0.0045024812570773065
0.020095820023925626
0.04489898086103494
0.069984767211281
0.09545278491532372
0.1214192206680309
0.14799568072066904
0.17524219294136856
0.20308557218959322
0.23120975592610193
0.2589419106079731
0.2851819183852058
0.308427191802366
0.3269164802040905
0.33901881132260314
0.34626668234591307
0.3780925326336728
0.5620664738971755
1.017129301965042
0.00011352854095392217
-0.07612857728418021
-0.14909935524337925
-0.2151611707158736
-0.27345162018900737
-0.3216401711816843
-0.35460448974117753
-0.3682625672299764
-0.36293447673961055
-0.34325795745826326
-0.3156352329388028
-0.28550700924824923
-0.25604408670369594
-0.22833250606345246
-0.20223722806258593
-0.17720403860585066
-0.1527120208775159
-0.12841991057939595
-0.10415019667834713
-0.07982518453172815
-0.05541111879392702
-0.030884095986948523
-0.006213814903276216
0.018642693998117466
0.04374517838732572
0.06917376067940495
0.09503349805163452
0.1214539012134992
0.14857484318690695
0.1765068350614456
0.2052524390455801
0.23458942697106977
0.26393462298437953
0.29223746573916287
0.3179676782183378
0.3392458586495195
0.3543037540221121
0.36505818346631713
0.40241315742605366
0.5869738688925281
1.0155345108112215
-8.469336835759123e-5
-0.08365258777303097
-0.15866623893452925
-0.22500018024948076
-0.28394959450815804
-0.33264279782088124
-0.36481952841495513
-0.37625807218864793
-0.36805049203394447
-0.3458383083343506
-0.3166574326751288
-0.2860079983001924
-0.256734011082699
-0.22951306277536787
-0.20391510913759703
-0.1792480130243348
-0.15496666272520088
-0.13075879206735408
-0.10648635294819542
-0.08210185919961077
-0.05758828240504954
-0.03292770736698003
-0.008089461973213474
0.01697244340357429
0.0423210561139058
0.06803922258040984
0.09423513342335355
0.12104513517260784
0.1486254166229628
0.17711952964987177
0.20658532383822603
0.23687655516550876
0.26749237134595205
0.2974420728023688
0.32519751482141146
0.3488057221370937
0.36643160272797104
0.3805494899588666
0.42352618823497323
0.6087487478798721
1.0138582181964466
-0.00031647853284688665
-0.08877302662222064
-0.16411224650437362
-0.23028264603635762
-0.290153108038794
-0.3397913409935427
-0.3718166102514715
-0.3818812211829936
-0.3716920630831737
-0.34771179691597354
-0.317499911019695
-0.2866037473650067
-0.25760046240566226
-0.2308436079438252
-0.20567967023089295
-0.1813224536163034
-0.15722114060918102
-0.13309480876341695
-0.10883998549002172
-0.08443300619273941
-0.05986825062063872
-0.03513007270521484
-0.010184919730818365
0.015018082862297888
0.04054681550223904
0.0664878681927803
0.09295223611024994
0.12007995034491614
0.1480357788350375
0.17698280373679154
0.20701559614462894
0.23804415750782937
0.26963627547593205
0.30086204749386525
0.3302168475056533
0.35571694255577313
0.37554595645633526
0.3929199807025725
0.44158001527739543
0.627500691836758
1.0121484346738043
-0.0005482665399609843
-0.0909079266457411
-0.1650155897004879
-0.23079822990985122
-0.29187997718690895
-0.3429871611187991
-0.3757166177420004
-0.38547552941986396
-0.374307345271518
-0.34928356112141046
-0.3184293473168509
-0.28740743519665557
-0.2586443746390614
-0.23227019594196463
-0.20746776802116074
-0.18338010337902233
-0.159451986919521
-0.135426361062855
-0.11122591212551924
-0.08684460365475388
-0.062284646064654225
-0.03753094706371485
-0.012546263078547781
0.012725825171401084
0.03835894712028676
0.06444457880934351
0.0910972912829493
0.11845993800125143
0.14670155784278904
0.1759952322972822
0.20645696144947578
0.23803415134898387
0.270346753697595
0.30252024644141784
0.33308746266629896
0.3600740186670919
0.3817815002894349
0.40235167161154095
0.4567319330017199
0.6433734269958222
1.0104473567105288
-0.0007377529415207862
-0.08966256483108737
-0.16119331184745533
-0.22644489492085995
-0.28894948840752477
-0.3420801829561242
-0.37653660252181
-0.38724599093256984
-0.3762059356304235
-0.350846586341504
-0.31963884412834886
-0.28849672814976657
-0.25986047969763604
-0.2337502565496834
-0.20923460551421158
-0.18539164322282886
-0.16164938137671925
-0.13776001700853158
-0.11366199999611126
-0.08936150120064212
-0.06486668619982083
-0.040162983767004334
-0.015209982246233267
0.010053992963548808
0.0357086446001631
0.06185129304685688
0.08860125857245293
0.11610460968768166
0.14453265728479892
0.17406220279644913
0.2048189037850534
0.23677125772519503
0.26957499790296424
0.3024024999795074
0.3338329528232862
0.36194025138820507
0.3852564896806143
0.4090180426283041
0.4691389789011282
0.6565297984925564
1.0087899078038163
-0.0008418950052373475
-0.084885790502085
-0.15270298972609453
-0.21722648752620444
-0.28119001076265704
-0.33684077684301883
-0.3741274332642206
-0.38719946437504404
-0.3775323064692202
-0.3525954310098314
-0.321286996055278
-0.2899562735547079
-0.26126802796170523
-0.23526693912572227
-0.21095456596231088
-0.1873385876424436
-0.1638071442139335
-0.14010086152211443
-0.11616143210994778
-0.0920020310441032
-0.06763599632904516
-0.043050414375102264
-0.01820318845784641
0.0069715970512334025
0.032559501378273126
0.05866428016088321
0.08541108413282927
0.11295000808786426
0.14145387452208524
0.17109919023005205
0.20201263193666819
0.23417073741438799
0.2672507838833553
0.30046346291783266
0.33244123965050676
0.3613475101410586
0.38606964649807196
0.4130789679738882
0.47895015733956825
0.6671426687462372
1.007201308158546
-0.0008276483484443986
-0.07670971029619977
-0.13984661452195724
-0.20327975557302125
-0.2684728850799729
-0.32695426674035843
-0.3681271022214787
-0.3850822380190948
-0.3782205944189627
-0.354616294906009
-0.32351671463402454
-0.29190643221591017
-0.26293372282816563
-0.2368399433180457
-0.2126212079601828
-0.18920684785189223
-0.16591406483348692
-0.1424442728057329
-0.11872613163450296
-0.09477332632377511
-0.07060362657284713
-0.04620746269938536
-0.021543180839216802
0.0034577587102830876