# vtk DataFile Version 3.0
d:\study\Notebook\Juno\MPC\MetaFEM\docs\src\examples\src\pikachu\3D_MetaFEM_Result.vtk
ASCII
DATASET UNSTRUCTURED_GRID
POINTS 23703 float
18.17064666748047 4.230950832366943 58.85861587524413
17.096628189086914 3.139414310455322 58.95132446289062
18.274829864501953 3.2966289520263676 58.83985900878906
16.9319236293758 4.01353981114331 58.00063042630826
17.759898138325887 4.584268550782052 57.89102620089063
17.434431076049805 4.4803056716918945 58.87421417236327
18.40027412202359 4.463777720755848 57.70218171978691
17.624796771047343 3.808009299766883 57.481768881915855
16.444833503149297 2.6343917806374235 57.75533427105742
17.509437963184983 2.8512864048895685 57.89995238406528
18.484301720880655 2.824707407566391 57.404880308880735
18.6053345937803 4.687916894407644 56.448596634705396
16.444352675684367 4.180316785310251 56.75068270579293
17.740155578909707 4.7647321946441945 57.06358537976644
17.038078649496516 4.847505942066022 57.707086454374824
15.787987816778365 2.125455642635877 56.550075904586535
-10.229668617248537 4.314857006072998 55.74445724487305
-10.231610298156738 3.5147504806518555 55.74445724487305
17.530588875198617 4.041960106726558 56.215216123235166
18.544807338248756 3.6224673992508976 56.562300627566266
15.96551209230657 3.2368931743003646 56.24341774380524
17.321508568522535 2.321679595174633 56.458530569314505
16.399106652299082 1.8105023117973054 55.37151483505332
18.65632791468023 3.861576505275414 55.56906318453956
18.716857014760354 2.300780922370003 55.811769429751514
15.371352043984718 2.930026945787868 55.052523937471385
18.79188648684029 4.91943758672706 54.97661852962532
15.738539927134228 4.34763018896769 54.98951116817135
17.4798683574422 5.148540418754435 55.646044645765805
16.609338208425175 5.244712052927438 56.44458667116814
15.006014823913578 1.5195685625076294 55.11521911621094
-9.973451604992876 3.8384742803895207 54.76193119642154
-9.901308058995308 3.0456943818629485 54.431010492529495
-9.858343889428648 4.530367776265795 54.40911677127309
-8.84027238990673 3.881012328767417 55.549227865635245
-8.913331517667746 4.857232361258966 54.71147099793981
-9.114708335273262 4.710273090555596 55.63881005583799
-8.849391994763101 2.7271495989106724 54.41599235775851
-8.082190102749147 3.736022037262682 55.00461127131656
-8.859601316130782 3.124522281074168 55.72062972399577
-9.650756850413277 3.7378592641462682 53.56297002480913
17.320535774452516 4.316696442443206 54.27516316409331
17.321022171487527 3.319188018808919 55.3668468667039
16.270899586126685 3.1155053194418736 54.52950136952778
17.62504516364994 1.784018559057829 54.78985541432445
16.40322812142576 1.3564058655530302 54.07093575834936
18.920147804368334 3.3730482840988953 54.0156120568263
18.989303398913787 1.6869833429960106 53.94538620822499
15.220777000765844 2.9118226200748265 53.692155872351655
18.94327030980453 5.157348298544522 53.24656963841278
15.666873018712646 4.619573974687083 53.65748630151561
17.480926050763927 5.481469129156067 53.9491614503653
16.094457626342773 5.721722602844238 54.92843246459961
17.743367316963738 1.1999081240643967 53.069309835084674
19.285432815551758 1.0198299884796143 51.91676330566406
16.48620749823479 1.029556489001389 52.67615703235508
14.691528539039595 1.053389499112867 53.23922448017445
-9.513279109997283 2.4946616504583603 52.8880134962916
-8.457774104257224 3.8301355034131133 53.83145374305823
-9.431707358925971 4.777980607818476 52.874866601505744
-7.264791358101174 3.9224117426799543 54.09993746130732
-8.640046614488815 5.030498535485306 53.79417536010563
-8.174490821694546 5.119218990792692 54.88876351418617
-8.130871803976396 2.363384596452758 53.831840754270935
-7.492310294608654 2.534275604592362 55.06340217888136
-8.636078390120126 3.696439233980183 52.567418501603804
-9.153266096703488 3.591515483434951 51.69805551913843
-9.045072650796563 1.82977032020878 51.02619065541493
17.161203191462835 3.484852466131976 52.90428168242081
18.150029098081127 2.7427458132583484 53.028229477847034
19.10162938215982 4.057882312189127 52.116407492489955
19.248246009062786 0.5622634331754801 50.0264914071693
17.379910391793917 2.1124433424178006 52.04084689886776
19.194453308767113 2.644141606929099 52.06331723254603
19.30019326552548 1.9459707159118027 50.59718302711846
14.855053229192677 2.164982906107487 52.05947774337819
19.039193920223386 5.404200184555565 51.21776245180754
15.325013619504402 4.14503656899704 51.62769564367867
17.43449973428042 5.730804202805498 51.928311548367525
15.905282456362201 5.859089266653386 52.8366326604559
17.598617592125 0.7400342187036276 51.177412115314716
15.742183227910953 0.7377318922607959 51.64283216353973
14.342190206282341 0.5355474671847591 51.155328075353005
-7.940741753035153 1.9662399484576647 52.68561479322623
-6.612933106258303 3.0923647887656824 53.67904920767401
-8.919916439971916 5.075015647119622 51.03438823607958
-8.009614460585535 5.3974347609062585 52.364759456380774
-6.45929621620548 4.371459216654291 52.92958712308715
-7.379579466859458 5.512180324270499 53.664947987122794
-6.173699165820903 1.8126150752966763 53.82275476908245
-7.086895839408496 1.4997917802074028 51.85616413765356
-8.783503643448467 2.9385791909739005 50.21414683370976
-7.621399929826973 3.6550192038140956 51.57186697839846
-8.720172402997223 3.9444004447044074 50.13267239167786
-6.8035775137524155 0.936286636118304 49.76340728107475
-8.509175300598145 1.068752408027649 48.89519500732422
-8.414766922732086 3.2465325953023783 48.88684393910371
18.498596463231753 -0.8292014845980987 44.02277607730722
19.166872024536133 -0.43900603055953985 45.890106201171875
17.987599061887554 4.1698342081962565 50.69813096024996
19.186199111561702 3.5922565753586175 50.21097049482977
17.61789872072348 5.847552726561959 50.05549234535028
19.290788536524477 2.0403955945048335 48.805869480648546
17.73582421930139 0.3369260847311398 49.46382043817846
19.21053328500537 0.09822570400928551 48.1094861778401
16.93600420355172 2.9354682318369476 50.178499468692394
14.685809295541741 2.2786798883152732 50.14602844255502
19.105877676768763 3.8737523939582656 47.66442603091803
19.0291468021759 5.62962255904292 48.84690073836528
15.145074792244886 4.2562579749514216 49.652900042585635
17.094238266562666 5.9799633848384515 48.65545896767285
15.672986561130442 6.027767387295881 50.26802649401711
19.182284185317542 1.7715539766469988 46.81353122249425
15.88162511906951 0.2854180025417774 49.71386187297496
13.922661781311035 -0.08634091913700104 48.65272903442383
17.53250834403107 -0.6471849526048147 45.00795622017516
-5.461889021742731 2.9082495924239504 52.415095742083075
-8.320417404174805 5.42295503616333 48.87849807739258
-5.25155322793484 4.588226349081629 51.31848318075621
-7.246064866484911 5.684895172833751 50.65893192990315
-6.51746455205836 5.901867087255326 52.14463471529967
-4.697461860272782 1.0557805395557769 52.164875170707916
-5.087212687579359 0.46114723461388174 49.01339274693635
-7.543633620535396 0.5860549486297205 47.233037888196314
-6.106868068824974 3.054901086499412 49.54364341634872
-7.213642736499888 4.238928061331372 49.211070746870654
-5.252245805574801 0.03126682193997343 46.50087808050892
14.38483624609033 -5.9229865648471 38.09188936337319
14.40198092051898 -3.2521883791083757 42.99014367257501
13.150580021177435 -4.064293781419183 42.63969261752547
5.422004471714827 -7.791358280874247 39.482069251779784
-7.529250002360106 2.5718469589708572 47.34555798526951
-7.685778903288066 4.040826360738224 47.710431401487305
-6.791703866037431 1.8955315380523596 46.05336914331825
-6.516246263418539 0.07243935094197505 45.46441490174707
0.8613264171719832 -5.1699483163170346 41.90780078301369
1.5325215526633214 -5.985560738750715 41.085144122453926
2.6497987996992065 -6.5151741697330605 40.16803914380257
14.606911118591356 -5.835779399149012 38.258440007677706
17.896970323990953 -1.1804814028766186 42.34168121440971
7.320008754730225 -7.912378311157227 40.94530487060547
14.396046676366225 -6.116460332843578 37.108280477914384
16.98844092172894 -0.9331714877185926 43.63375086687301
15.278203081593563 -2.168233063401984 42.83750395764512
17.83514995865156 0.12961795970875212 42.36115053954616
14.303498105623575 -2.0373876587611717 44.18636760002297
16.601894741326753 -0.26651523453397524 47.241322967990314
15.332457338088748 -0.9212928751781981 43.868797271318066
16.076021500789583 -0.6933828158567188 44.88405566772535
14.186281204223631 -0.5914990901947023 45.610145568847656
18.131953601856992 1.0064918023114136 43.2156982433344
18.763464948776996 1.445437758644121 44.769483113491674
18.776505694290893 3.5269111361328638 45.35748966624356
17.003448864856686 4.181904890558975 48.020538321574406
16.91265946315071 2.383846396279498 47.38561767547596
14.643034740983877 2.996138815911995 47.95770412845768
18.773069633704146 5.679547611675569 46.178719506735575
17.340140497904933 5.9308491198153535 46.81201642542633
15.398160934448244 6.227327823638916 47.229148864746094
16.504055201329667 1.8329533998930934 45.372285150770246
14.614223152560935 1.7345141059354716 46.39471760598297
16.095450939508623 1.2820604035066903 43.35895262606453
17.5047446006476 1.2899324930766696 41.66637727516005
18.167052170349645 5.37535511634941 43.62054046753065
-3.7989692149178604 2.863269577696448 50.200442893593724
-7.3722717132942055 5.502936048011882 47.277100304577516
-6.24052704126568 5.889684066238197 48.876927187094765
-4.174356545381251 4.868233865119892 49.70571306478303
-5.352084722380794 6.264718864551414 50.414257000378214
-2.9538758561089495 0.32805554948794485 50.07803364886716
-3.301928979560844 -0.12955482579464545 47.2611413791263
-2.5071143671930303 2.021688189679061 48.561638665298055
-3.420993065539965 -0.340996695371513 45.80817225929125
-4.505816421346178 1.7794870118522352 47.50351044694871
-4.0984668478818165 1.3358733081842418 45.32166850280519
-5.427524503228151 4.554321341285325 48.031809578335036
[...]
POINT_DATA 23703
SCALARS T float 1
LOOKUP_TABLE default
293.4000955573966
293.38430076243986
293.3959061276376
293.5055200436748
293.4971560577851
293.3931678652635
293.4811250575777
293.6050801184834
293.45671824792123
293.5105858747226
293.50053540366036
293.55936081946146
293.62256850762736
293.5723964059524
293.4773314044109
293.51145230441904
293.35871262786304
293.3637995336066
293.7581910610077
293.6210121310301
293.66050438595
293.6471886528791
293.6970120136949
293.7025717473427
293.5962133946097
293.7101781156408
293.64245288734605
293.73404005818986
293.68372003755223
293.5517991483264
293.51788601797176
293.48957651352447
293.491849425923
293.49517957568094
293.49178566269103
293.53489657772906
293.42544114699234
293.5878083656395
293.5694189781
293.4377362612976
293.61214825281206
293.96056608080215
293.8840679877044
293.93105623406336
293.7696186519791
293.7779136803513
293.8100683918833
293.6741252025733
293.81308753289557
293.7132019691812
293.80965432261615
293.7784760191509
293.5856255943684
293.8489657409289
293.697614745611
293.8691192857273
293.57680600199126
293.59745756963457
293.74910493363154
293.61353413128563
293.67463869609213
293.6237552049647
293.4850945845276
293.6628629057471
293.4716417282473
293.85296670182123
293.77648863861066
293.6815988700499
294.1486462493291
294.0505074057602
293.88979663800654
293.7569975321015
294.1608956813518
293.8919773329848
293.9192469085693
293.8507284942244
293.76883884756785
293.94146235518184
293.86590249176965
293.6816028315958
293.94387482853944
293.85431839553974
293.6165651492631
293.76119238612586
293.7064556460252
293.71141946288685
293.738783528266
293.7839435978232
293.57127006783816
293.5319695994203
293.83526863403733
293.87005432167297
294.059503778807
293.87403372642524
293.9476071499034
293.6983276997854
293.91961468467235
293.96605461675233
293.80020923935166
294.2073377389573
293.98929907801187
293.9235170306184
294.0133467640118
294.0004510046766
293.7867579611464
294.379005792845
293.9728140860776
294.0542166314137
293.7965497642524
294.015260932386
293.95334365334617
293.75239452100305
294.09484936989656
293.9639620569688
293.64193516317397
294.2382201444812
293.8240347507786
293.74579780590096
293.9046337045235
293.8543858760591
293.6599434427865
293.5921934896182
294.0085600506078
293.7569013755202
294.3481817848203
294.1811614763335
294.0991086297044
294.9649791702904
295.1999736352858
295.45585811807246
295.3762827173658
294.0291784543963
293.9899591098202
294.07679946574257
293.8182597629378
295.1419785824611
295.15980636953446
295.38345476613875
294.98295093720117
294.2269857115507
295.0299258008938
294.83211704243865
294.5341360424453
295.30106300576443
294.6406620762773
295.09489776412926
294.13606415588106
295.1637173711834
294.5654059673308
294.5038750109833
294.53317677615337
294.2537580166412
294.1811642171306
294.40889544698183
294.5886350753734
294.0842274055901
293.82009299201957
293.9840528749351
293.75102153724896
294.8944903106785
294.2684118679109
295.58965887630023
294.9822650846982
293.9346462781419
293.99552457865286
293.81745138063303
293.9480873778486
293.97744111008217
293.71857336330487
293.6466634729072
294.10984911053544
294.0752037344462
294.27477746246564
294.52235224480444
294.7059874780864
294.3558365560532
295.38614479336775
295.55265615439674
295.17397444846966
295.05634083196446
294.22747295317794
293.86320529892487
295.2501956199876
295.11819063226847
295.08072082776374
295.28165511667345
295.32014301328724
295.3039163914787
295.1793938121925
295.2638814734107
294.937635619463
295.3255227214367
295.15648171812694
295.5918496472818
295.4774128943943
295.358331633455
295.2580155964526
295.4396230521056
295.2840691082515
295.5035355371239
295.5113750548647
295.43758005513695
295.5414039814794
295.5882232567964
295.1669812197158
295.3047499007985
295.18859865993494
295.17786734679714
295.27895505312125
294.8811333937955
296.0324327549004
296.1077425788876
294.8631515332988
295.2659278652359
295.7680036343845
295.5818090682444
295.6051445204181
296.0935937422862
295.42371368386074
295.2491926836998
296.6116707724382
296.39389082441403
295.6699142540409
295.3941251467824
295.5210432516396
295.42669501668337
294.8807955526149
294.9221703510059
295.8735804746907
295.66295801456874
295.54408145288284
295.6352746007977
296.28779240633344
295.5686858894542
295.563698046642
295.50646283221073
295.3046029851034
295.605454691662
295.29270102763957
296.4945916193008
295.2649693210907
295.1770045808474
295.3612154600173
296.56376397185096
295.3726096540928
294.1322846194856
293.8612967644212
294.25421868284775
296.1014805679675
296.0367422037457
295.72186675409523
296.48197910349757
295.0686959037827
295.17814093643494
295.39746211163487
295.1461342826021
294.9496400634704
295.6402599766135
295.58582760415516
295.39608745458787
295.6960968799349
294.7181888449316
294.7511244349476
295.3536837187636
295.9669602182582
294.8933324789266
295.8984297646039
295.4505212482473
295.4479037669281
295.3545310354376
295.72168613119237
296.78190446380694
295.8488992604511
295.9642014806357
295.13640587751166
296.1289060599304
296.17989843472077
295.07618207263096
296.08330970138434
295.3888982835472
294.64754479424306
294.73615288077417
294.94235073595786
295.3652682081447
295.43730090351744
296.0902947972339
296.80950578733143
296.48620567221155
296.6181431674143
294.99815111844106
295.35885615916703
294.51244711011657
294.7526741240806
294.20694483470356
294.3583030610618
294.13085824878925
293.9034343346038
294.9801649755099
295.66109886545166
296.274092602575
295.6727482316645
295.07762321031237
294.28285588057304
294.1238518926555
294.02482724084484
293.7594803922631
294.5601763918475
295.2217407571717
294.63017887490673
295.2432879306279
294.290549068464
293.75588896944595
296.8324402836761
295.35314054433957
295.00156092998907
294.7590675399221
295.01925688694234
294.3670790647602
295.3409040841582
294.51279240357377
295.18247775912624
294.72756100345754
295.23184746201923
296.4245827035274
295.1107334006265
294.7826482296806
295.02549865719254
294.8738893146381
295.1951066716072
294.6648954048156
295.6033313782182
295.370920603119
295.7287342013511
296.6588659078045
295.63388780379637
295.7083028956446
295.86643673760295
296.09458847958774
296.12291195870876
295.6585120510678
295.7576931578671
296.80607311800634
295.7464621648448
295.6751185613617
296.8829063200429
296.4791093595781
296.8456145777134
296.43358949432684
296.93125985934
295.26479376925255
295.1032427423099
295.7733962350348
295.7271522871836
295.6330409670945
295.648106304005
295.6394014651362
295.8649138407761
295.1515559091792
295.2905777077961
294.11569521858485
296.66996218242116
295.9530303848084
295.3902920772766
295.3325053670387
296.03104065116975
296.16903502194856
296.5104938462725
296.4285513052655
296.7127254044991
296.32948612473956
296.56607453768027
296.6699669698097
297.04007162120325
297.2496535598919
297.22925464975765
296.9351365993057
297.4836827163167
296.8795055386095
296.90330094969636
297.60611557695245
297.13824395007845
296.79456999833127
296.66746351187
296.5922535197545
296.8136547789778
295.8166457806886
295.44206144536486
295.3427657756896
295.7110635426086
295.5379564853387
296.4431663923437
296.0421548311534
297.1318899758936
297.624363649188
297.09205572900976
296.0680029704456
295.4237070471504
297.65082820188564
297.5305366658751
296.6547624764003
297.91619970028324
298.3626638834656
297.16063674965784
297.3444659650892
297.25897157460076
297.78935472553496
297.17505949344417
297.53949775438605
297.55123031256005
298.1796983590301
297.6760137598488
297.82079884573653
296.53737667622323
296.9475705115591
297.5771426215518
296.5754173053086
295.2951686664056
295.2998959539632
296.7566731088805
294.7657951858731
293.8419832205888
294.47870452925275
297.14916240676
295.9547167569242
296.7640303694007
296.35244058514553
297.7642646649912
295.0484705263185
295.1788089120028
295.16467538542395
294.8426256233415
295.2026066638215
295.12528168285814
294.9305651273901
295.1913824793153
295.54140888016263
295.52508757315246
295.2164059367719
295.9565249383906
295.35275360072484
295.329602575025
296.43030895800615
297.0911781420385
297.7481873440683
296.5571087907801
295.45430174009596
296.83362693337097
295.15726889742456
295.72317427886134
295.83984821119424
295.57069155409863
297.13295198376704
297.8862862041588
297.9392632330062
296.5317497815972
296.1710317312001
296.36046009522255
297.7293167877439
296.52086483609605
295.3450145990319
295.0616279313946
295.7744038203058
295.53247354962144
295.2994269622069
295.1586836900532
295.6512412684979
295.656963726521
295.42358431664445
295.5721704532683
295.5524003954817
295.7668344213361
297.5457643585856
296.2504055681368
295.908772197456
296.036870184791
295.7218856239972
295.47143281616275
296.0669828642359
295.6137471306417
295.5962536001037
297.0065763620706
296.25454484512954
295.74191805598014
295.3975956626824
295.5645416195605
295.7851301919138
295.6801250913042
295.5339814322508
295.7546872639745
295.4087886631982
295.7796595188756
295.784509929129
296.6525655618736
295.4435898927487
295.09892221505805
295.1746902282411
294.8180935583666
294.9508734541055
294.4415136369996
297.9549824845019
297.11523839954083
297.36761809020777
297.64714723374635
297.514005195207
296.6812695536776
295.69043605429
296.5999131526344
295.48227414416056
295.16166069539156
294.93374586545724
296.1935992252684
294.455893658956
295.2143519540695
296.64854224727173
295.5757038715801
294.32157838430555
294.1470528343498
293.86818750834465
295.6208976103357
294.98844509486366
296.69764835043355
296.4224992967007
295.0534970216397
296.99819842957885
295.3986738370029
295.4406262911071
295.36248864520707
295.41690551294624
295.04290909583307
296.20411679863753
295.52731715909925
294.8675095681813
295.4079698791985
294.3719255715888
295.15732272111
296.9040092371707
297.61707799716004
296.34656640821595
297.1329937638923
295.3507922023171
294.76010759838505
295.3979958706334
295.20793655340987
296.1326993256961
295.36245145000663
294.7321832749959
295.05573879725216
295.6409004383099
294.9434530618929
295.5309297276348
295.75894319547587
295.2869535046515
297.1774504327064
296.57636056656463
296.9256464933567
296.1334779805476
296.2566773881614
296.1449072218917
296.8662338479826
297.7418442061523
296.53892500263777
297.49295483805025
296.5164188348597
297.5660343801263
296.97153630863596
297.3050615236523
297.6463000759032
297.62834979866705
298.1929622243994
297.69305196750867
297.59540495953627
296.3693482943892
296.7087781988579
296.36337807198925
297.1122817770853
296.94112472556964
296.0328536096261
297.01092507374693
295.0973797447727
295.5465351242745
296.46517669336924
296.3023228411369
295.31013850329964
295.50001221141537
297.47130170155293
295.6082583378197
295.59606478097027
294.97806376478746
297.997009445738
298.2168610431467
297.51022134553006
296.66799831024116
295.529923430326
295.5942866614354
294.95829634171304
295.13115303361815
295.1672730958096
294.6993830906378
294.5220993207286
297.4353348901502
297.81990501498757
298.1861784309083
298.1476918788983
298.5543625691037
298.4563373510897
298.17481524596474
298.24952640030915
298.2622649314116
298.57756804500224
295.63773882771176
298.72543923978003
299.24952570788116
298.68605348321654
298.34706056541575
297.8270858393466
296.78292110064046
296.56479882856837
297.4330414757432
295.9326834005649
295.7205941186071
297.59920161187955
297.9460426865506
298.4480617649309
298.57560587595896
298.4915274391426
297.9701125172213
299.011588349281
299.34564059349424
298.34738714500435
298.95630277963016
298.15919770052903
298.2851874402626
298.93577724326394
298.38254640617896
298.86599207753846
299.0408297298435
299.0268733812421
297.8710367749291
296.5346033609673
297.8105923387772
295.52278220899876
294.85995469267453
294.1898297459523
295.69408809432144
299.2035632852664
297.9123912192464
297.85044381942345
298.2301603089472
298.48312588218715
298.89269604566596
297.7888162606339
298.5973670510855
295.5034994059562
295.2742317375905
295.0773615397325
295.25779104979694
295.966902787792
295.8183120469666
295.8805803527226
295.18497634405253
294.94219213846577
295.12062230566295
295.27728668662525
295.26124246417635
295.11881605367716
296.10840044582716
295.4043077291217
295.55095660129894
297.14332448279737
296.1581305181828
296.40057065241064
296.30080378352056
296.5770211127281
296.35228948346963
297.5717021707399
297.339528049706
298.5886072629994
297.9296841590676
295.62511423664927
296.8555340948055
295.27241910345805
295.6642568613374
295.72832112059314
295.7115526495746
295.9445749913842
297.42624662710955
296.0252401819124
297.00316946660706
296.75733228214443
298.15293843656417
298.95275444676315
299.05401258126057
298.5373903753908
298.79887462814384
297.1004715232037
296.9949838073573
298.1102205271043
296.5131689493051
296.66714510659557
296.85683351263947
297.027973937339
296.8678947807068
296.4137338080627
297.34852274780184
296.8060542433837
297.0991041142149
298.55893358349704
297.9835379183414
297.2346519156673
297.39047899623273
298.5699217132498
296.99399500999533
296.96654896849634
297.9677603089004
296.9876574458694
296.78483956166343
295.8018291090345
295.84587725716676
296.9289173044355
295.1951057407197
295.7572743058564
296.0860067439556
294.5337952237379
295.71447439182816
295.05172546001444
296.95905317698197
296.50546766360145
297.06915049635296
297.3367673636169
297.90123664782953
296.3055637721316
295.7890013598324
294.9609434151632
298.68343822287864
297.9196140769117
298.09978471359915
299.3628783438634
298.19433625828617
297.04700961434514
295.56636037440694
297.2706340495775
297.0562605826945
295.3272970333949
294.8127119751227
297.1233269421444
294.479165795162
297.0401776846855
297.676670237142
297.0343941525152
295.6626748580811
295.48418269264545
295.50280594618096
295.1665849246414
296.4572321141253
296.3385855821867
295.22025304030814
295.66787614040146
295.3757402438764
294.84569691093617
295.35434564308633
297.1796875568909
298.18867084645143
295.36442551004745
296.29557094927725
295.7255074509308
295.28365486746037
295.34829885678687
295.7726487228663
295.7935736342031
298.620149057142
298.129302858368
295.67953654631685
295.48787907249925
295.3137728562701
294.45313376398497
297.0237460280506
297.22238417810877
296.45754032376107
295.28971411136615
295.62986807040403
295.3125900612328
295.941142306206
295.8459390048275
297.1619717953455
296.45860169633517
295.32420635222564
295.23959499640387
297.9772652221703
297.6327087374346
297.5793723119673
297.79829323242114
298.07291847020485
298.2982855433066
298.87137422972626
298.55867084985454
298.76420664371346
298.97440492480933
299.0712071532281
298.58309045721626
297.08573524099927
297.35768669549367
297.4758009871106
298.13798366603015
298.5364203990054
296.1085104385612
295.3419570866011
298.13804581077744
298.05664264523887
298.82309628129497
295.56184083884125
296.90024303277363
296.89737802448553
295.4879443485921
298.48996486010464
298.06059472717044
297.4054179607498
295.608345286573
295.62353254453905
295.2343154437861
295.7037583439139
298.9160654520296
299.25656354109344
297.97515052337644
296.97167031615027
294.96426088420924
295.66184923828064
295.71009281232153
295.4751285312539
295.59663955402624
295.944315312521
295.9292792012929
296.09068174428444
295.2120443508639
295.25824966865014
295.2575166652963
297.0584502964918
295.8445834952259
298.9969840058238
299.6362247230302
299.54717400800706
299.3480889054127
299.47122083839946
299.50401977593526
299.20575471003116
299.95199734745324
298.0539258366847
299.9355943966425
299.8887847158836
299.7272348663933
300.17679799585267
298.6287616610477
299.10458634377335
298.06801401035204
297.254744890551
298.977239931792
299.4950118544945
299.7824689265951
299.05829272607684
299.77838108252195
300.39893230000513
299.7065860456659
300.38217068510073
299.68430898153684
299.842586482433
299.8625991079543
299.33364259091616
299.27060941437253
299.7643749491995
299.89281972145204
298.72372036414964
296.8391705785809
297.3377349389402
295.51354197974655
295.83969968324413
300.39086296334017
300.0835814009866
298.96822197075414
299.65639205505204
299.8644305222058
298.01787994760133
299.1155738325931
299.45976206871404
295.280936241632
294.8934133637234
296.38731843648577
296.74811912327283
296.3821561162537
295.2069919037603
295.9584315985432
296.98869656835114
296.3281210104805
296.2534907646382
295.4324046478437
296.43346531539623
296.1413355948867
295.2933322851189
297.36820088029987
295.33252577926595
295.2909041165108
295.70973380714906
297.0468826820501
299.03253253333963
298.0768690622266
297.53905138511976
297.3176538958495
297.44904727074726
297.5452279252344
295.7685225993336
297.8380923617406
299.42777537169474
298.0995256199155
296.0041312717359
296.0407293169014
296.666876966664
296.7331406947066
295.3150247231801
296.9071395829639
295.6866210323097
295.08178388506263
297.77160564838744
296.78276063801275
298.0857448772286
299.54257086344035
297.85581690401756
297.3366047390574
297.47081651137074
299.30585122138484
299.72529040324025
298.58290672618836
297.74625518394987
297.8266201555872
297.76085369483195
297.9929765185931
298.9357034279318
299.55756130983025
299.8641913866455
299.1665755900257
299.7380808503091
298.2037153999879
298.8574920839051
298.249003659661
299.092290111791
297.89418799231805
297.1103550597509
296.99735685071397
296.84693800483495
296.15272891071345
296.18896520498015
296.7194713398443
297.7856022695249
297.8131723583476
298.1645897767544
298.8681255528167
296.7525883889024
297.93604246615683
294.92960122117023
297.92732336776777
299.1315970557003
297.8479879249004
296.98011136687035
295.5313202799398
298.22305831613147
298.39209049536447
295.25256290375444
294.79278982442145
294.8272891029101
297.12809108699383
298.0437195108782
297.6389368997052
299.37106353676654
296.7302645968383
296.75392551519616
295.603676243154
295.65496776870157
295.82816294501373
295.5844871563868
296.01592511122516
295.95504214981304
296.75538118208186
295.54247741717154
294.40933810342364
294.59749709422
294.5377212303243
294.93770494702346
295.1493719304633
295.07506485166033
294.96016500853796
294.61588340628555
295.29365938784105
295.15690885263336
295.0127654538915
294.9157999696385
294.55056239937034
294.4587007398285
294.9581457778572
294.91366382633174
295.32652578636635
295.23596293943405
296.5584985347843
297.87417490050586
296.72545874576605
295.81292385857404
296.5913530415221
297.2354499906675
297.6567062756866
296.0685469135781
296.04521697963946
299.0565135092987
295.63779864270003
297.43275498678435
296.8191505220652
298.60283473279554
296.1706105435516
295.6095502016484
295.4748299338248
294.9710592817557
297.29195196725556
295.682990538333
297.15205778764334
296.9539354143745
295.5976015865681
295.27981385018376
299.20360737803855
298.7952906885284
299.10036890035434
299.86788186732844
299.58038729468734
300.307597372706
299.913532323584
299.7757518426079
298.11083485140296
298.75683739976694
299.5761722065347
299.2295023433889
294.88240617607863
295.42777189644545
296.1056787147285
296.7541502851556
298.7863711064858
298.1734696659515
297.40213334336795
298.58592841127444
299.5151013869005
295.7378664938055
295.7178132204268
295.36282915180425
296.7978871269463
298.7741247487921
297.83537866756706
295.77397309627474
295.33271355451467
297.3419930989807
296.7106468515204
299.26712601060876
297.82228761366844
295.18362971016455
295.957123859676
294.52920619452186
296.97118767778295
296.3356438639827
295.56982745694046
295.52762809432227
295.1706047686894
295.12095519648125
295.813576360624
295.2405392692012
296.94737097673794
296.95032243011764
295.9913424061501
296.0031070612026
294.63148000241915
294.54154172196735
295.77210509098455
295.49230980710195
297.25678783316914
297.1243356233799
295.2313801265426
295.36243003784665
297.95265134881845
297.20691663791956
300.2515635317198
300.2905239345148
300.47172866452155
300.71557112846403
300.5622013829981