# vtk DataFile Version 3.0
d:\study\Notebook\Juno\MPC\Git\examples\heat_transfer_strip\2D_Ceramic_Strip.vtk
ASCII
DATASET UNSTRUCTURED_GRID
POINTS 2521 float
0.0 0.0 0.0
0.0 0.0005000000237487257 0.0
0.0 0.0010000000474974513 0.0
0.0 0.001500000013038516 0.0
0.0 0.0020000000949949026 0.0
0.0 0.0024999999441206455 0.0
0.0 0.003000000026077032 0.0
0.0 0.0035000001080334187 0.0
0.0 0.004000000189989805 0.0
0.0 0.0044999998062849045 0.0
0.0 0.004999999888241291 0.0
0.0 0.005499999970197678 0.0
0.0 0.006000000052154064 0.0
0.0 0.006500000134110451 0.0
0.0 0.007000000216066837 0.0
0.0 0.007499999832361937 0.0
0.0 0.00800000037997961 0.0
0.0 0.008500000461935997 0.0
0.0 0.008999999612569809 0.0
0.0 0.009499999694526196 0.0
0.0 0.009999999776482582 0.0
0.0005000000237487257 0.0 0.0
0.0005000000237487257 0.0005000000237487257 0.0
0.0005000000237487257 0.0010000000474974513 0.0
0.0005000000237487257 0.001500000013038516 0.0
0.0005000000237487257 0.0020000000949949026 0.0
0.0005000000237487257 0.0024999999441206455 0.0
0.0005000000237487257 0.003000000026077032 0.0
0.0005000000237487257 0.0035000001080334187 0.0
0.0005000000237487257 0.004000000189989805 0.0
0.0005000000237487257 0.0044999998062849045 0.0
0.0005000000237487257 0.004999999888241291 0.0
0.0005000000237487257 0.005499999970197678 0.0
0.0005000000237487257 0.006000000052154064 0.0
0.0005000000237487257 0.006500000134110451 0.0
0.0005000000237487257 0.007000000216066837 0.0
0.0005000000237487257 0.007499999832361937 0.0
0.0005000000237487257 0.00800000037997961 0.0
0.0005000000237487257 0.008500000461935997 0.0
0.0005000000237487257 0.008999999612569809 0.0
0.0005000000237487257 0.009499999694526196 0.0
0.0005000000237487257 0.009999999776482582 0.0
0.0010000000474974513 0.0 0.0
0.0010000000474974513 0.0005000000237487257 0.0
0.0010000000474974513 0.0010000000474974513 0.0
0.0010000000474974513 0.001500000013038516 0.0
0.0010000000474974513 0.0020000000949949026 0.0
0.0010000000474974513 0.0024999999441206455 0.0
0.0010000000474974513 0.003000000026077032 0.0
0.0010000000474974513 0.0035000001080334187 0.0
0.0010000000474974513 0.004000000189989805 0.0
0.0010000000474974513 0.0044999998062849045 0.0
0.0010000000474974513 0.004999999888241291 0.0
0.0010000000474974513 0.005499999970197678 0.0
0.0010000000474974513 0.006000000052154064 0.0
0.0010000000474974513 0.006500000134110451 0.0
0.0010000000474974513 0.007000000216066837 0.0
0.0010000000474974513 0.007499999832361937 0.0
0.0010000000474974513 0.00800000037997961 0.0
0.0010000000474974513 0.008500000461935997 0.0
0.0010000000474974513 0.008999999612569809 0.0
0.0010000000474974513 0.009499999694526196 0.0
0.0010000000474974513 0.009999999776482582 0.0
0.001500000013038516 0.0 0.0
0.001500000013038516 0.0005000000237487257 0.0
0.001500000013038516 0.0010000000474974513 0.0
0.001500000013038516 0.001500000013038516 0.0
0.001500000013038516 0.0020000000949949026 0.0
0.001500000013038516 0.0024999999441206455 0.0
0.001500000013038516 0.003000000026077032 0.0
0.001500000013038516 0.0035000001080334187 0.0
0.001500000013038516 0.004000000189989805 0.0
0.001500000013038516 0.0044999998062849045 0.0
0.001500000013038516 0.004999999888241291 0.0
0.001500000013038516 0.005499999970197678 0.0
0.001500000013038516 0.006000000052154064 0.0
0.001500000013038516 0.006500000134110451 0.0
0.001500000013038516 0.007000000216066837 0.0
0.001500000013038516 0.007499999832361937 0.0
0.001500000013038516 0.00800000037997961 0.0
0.001500000013038516 0.008500000461935997 0.0
0.001500000013038516 0.008999999612569809 0.0
0.001500000013038516 0.009499999694526196 0.0
0.001500000013038516 0.009999999776482582 0.0
0.0020000000949949026 0.0 0.0
0.0020000000949949026 0.0005000000237487257 0.0
0.0020000000949949026 0.0010000000474974513 0.0
0.0020000000949949026 0.001500000013038516 0.0
0.0020000000949949026 0.0020000000949949026 0.0
0.0020000000949949026 0.0024999999441206455 0.0
0.0020000000949949026 0.003000000026077032 0.0
0.0020000000949949026 0.0035000001080334187 0.0
0.0020000000949949026 0.004000000189989805 0.0
0.0020000000949949026 0.0044999998062849045 0.0
0.0020000000949949026 0.004999999888241291 0.0
0.0020000000949949026 0.005499999970197678 0.0
0.0020000000949949026 0.006000000052154064 0.0
0.0020000000949949026 0.006500000134110451 0.0
0.0020000000949949026 0.007000000216066837 0.0
0.0020000000949949026 0.007499999832361937 0.0
0.0020000000949949026 0.00800000037997961 0.0
0.0020000000949949026 0.008500000461935997 0.0
0.0020000000949949026 0.008999999612569809 0.0
0.0020000000949949026 0.009499999694526196 0.0
0.0020000000949949026 0.009999999776482582 0.0
0.0024999999441206455 0.0 0.0
0.0024999999441206455 0.0005000000237487257 0.0
0.0024999999441206455 0.0010000000474974513 0.0
0.0024999999441206455 0.001500000013038516 0.0
0.0024999999441206455 0.0020000000949949026 0.0
0.0024999999441206455 0.0024999999441206455 0.0
0.0024999999441206455 0.003000000026077032 0.0
0.0024999999441206455 0.0035000001080334187 0.0
0.0024999999441206455 0.004000000189989805 0.0
0.0024999999441206455 0.0044999998062849045 0.0
0.0024999999441206455 0.004999999888241291 0.0
0.0024999999441206455 0.005499999970197678 0.0
0.0024999999441206455 0.006000000052154064 0.0
0.0024999999441206455 0.006500000134110451 0.0
0.0024999999441206455 0.007000000216066837 0.0
0.0024999999441206455 0.007499999832361937 0.0
0.0024999999441206455 0.00800000037997961 0.0
0.0024999999441206455 0.008500000461935997 0.0
0.0024999999441206455 0.008999999612569809 0.0
0.0024999999441206455 0.009499999694526196 0.0
0.0024999999441206455 0.009999999776482582 0.0
0.003000000026077032 0.0 0.0
0.003000000026077032 0.0005000000237487257 0.0
0.003000000026077032 0.0010000000474974513 0.0
0.003000000026077032 0.001500000013038516 0.0
0.003000000026077032 0.0020000000949949026 0.0
0.003000000026077032 0.0024999999441206455 0.0
0.003000000026077032 0.003000000026077032 0.0
0.003000000026077032 0.0035000001080334187 0.0
0.003000000026077032 0.004000000189989805 0.0
0.003000000026077032 0.0044999998062849045 0.0
0.003000000026077032 0.004999999888241291 0.0
0.003000000026077032 0.005499999970197678 0.0
0.003000000026077032 0.006000000052154064 0.0
0.003000000026077032 0.006500000134110451 0.0
0.003000000026077032 0.007000000216066837 0.0
0.003000000026077032 0.007499999832361937 0.0
0.003000000026077032 0.00800000037997961 0.0
0.003000000026077032 0.008500000461935997 0.0
0.003000000026077032 0.008999999612569809 0.0
0.003000000026077032 0.009499999694526196 0.0
0.003000000026077032 0.009999999776482582 0.0
0.0035000001080334187 0.0 0.0
0.0035000001080334187 0.0005000000237487257 0.0
0.0035000001080334187 0.0010000000474974513 0.0
0.0035000001080334187 0.001500000013038516 0.0
0.0035000001080334187 0.0020000000949949026 0.0
0.0035000001080334187 0.0024999999441206455 0.0
0.0035000001080334187 0.003000000026077032 0.0
0.0035000001080334187 0.0035000001080334187 0.0
0.0035000001080334187 0.004000000189989805 0.0
0.0035000001080334187 0.0044999998062849045 0.0
0.0035000001080334187 0.004999999888241291 0.0
0.0035000001080334187 0.005499999970197678 0.0
0.0035000001080334187 0.006000000052154064 0.0
0.0035000001080334187 0.006500000134110451 0.0
0.0035000001080334187 0.007000000216066837 0.0
0.0035000001080334187 0.007499999832361937 0.0
0.0035000001080334187 0.00800000037997961 0.0
0.0035000001080334187 0.008500000461935997 0.0
0.0035000001080334187 0.008999999612569809 0.0
0.0035000001080334187 0.009499999694526196 0.0
0.0035000001080334187 0.009999999776482582 0.0
0.004000000189989805 0.0 0.0
0.004000000189989805 0.0005000000237487257 0.0
0.004000000189989805 0.0010000000474974513 0.0
0.004000000189989805 0.001500000013038516 0.0
0.004000000189989805 0.0020000000949949026 0.0
0.004000000189989805 0.0024999999441206455 0.0
0.004000000189989805 0.003000000026077032 0.0
0.004000000189989805 0.0035000001080334187 0.0
0.004000000189989805 0.004000000189989805 0.0
0.004000000189989805 0.0044999998062849045 0.0
0.004000000189989805 0.004999999888241291 0.0
0.004000000189989805 0.005499999970197678 0.0
0.004000000189989805 0.006000000052154064 0.0
0.004000000189989805 0.006500000134110451 0.0
0.004000000189989805 0.007000000216066837 0.0
0.004000000189989805 0.007499999832361937 0.0
0.004000000189989805 0.00800000037997961 0.0
0.004000000189989805 0.008500000461935997 0.0
0.004000000189989805 0.008999999612569809 0.0
0.004000000189989805 0.009499999694526196 0.0
0.004000000189989805 0.009999999776482582 0.0
0.0044999998062849045 0.0 0.0
0.0044999998062849045 0.0005000000237487257 0.0
0.0044999998062849045 0.0010000000474974513 0.0
0.0044999998062849045 0.001500000013038516 0.0
0.0044999998062849045 0.0020000000949949026 0.0
0.0044999998062849045 0.0024999999441206455 0.0
0.0044999998062849045 0.003000000026077032 0.0
0.0044999998062849045 0.0035000001080334187 0.0
0.0044999998062849045 0.004000000189989805 0.0
0.0044999998062849045 0.0044999998062849045 0.0
0.0044999998062849045 0.004999999888241291 0.0
0.0044999998062849045 0.005499999970197678 0.0
0.0044999998062849045 0.006000000052154064 0.0
0.0044999998062849045 0.006500000134110451 0.0
0.0044999998062849045 0.007000000216066837 0.0
0.0044999998062849045 0.007499999832361937 0.0
0.0044999998062849045 0.00800000037997961 0.0
0.0044999998062849045 0.008500000461935997 0.0
0.0044999998062849045 0.008999999612569809 0.0
0.0044999998062849045 0.009499999694526196 0.0
0.0044999998062849045 0.009999999776482582 0.0
0.004999999888241291 0.0 0.0
0.004999999888241291 0.0005000000237487257 0.0
0.004999999888241291 0.0010000000474974513 0.0
0.004999999888241291 0.001500000013038516 0.0
0.004999999888241291 0.0020000000949949026 0.0
0.004999999888241291 0.0024999999441206455 0.0
0.004999999888241291 0.003000000026077032 0.0
0.004999999888241291 0.0035000001080334187 0.0
0.004999999888241291 0.004000000189989805 0.0
0.004999999888241291 0.0044999998062849045 0.0
0.004999999888241291 0.004999999888241291 0.0
[...]
POINT_DATA 2521
SCALARS T float 1
LOOKUP_TABLE default
1173.1502300593168
1173.1502318454998
1173.150237297387
1173.1502467052615
1173.1502605891208
1173.1502797599885
1173.1503054224368
1173.1503393396083
1173.150384104194
1173.1504435704692
1173.1505236657963
1173.1506334356154
1173.1507888570122
1173.151010316711
1173.151366801173
1173.1517967991795
1173.1530523447163
1173.150232852323
1173.1544884139657
1172.8929899964132
1171.947988716871
1166.225862570107
1166.2012214288116
1166.126933887601
1166.0018882155418
1165.8241643682122
1165.590925566852
1165.2982475310564
1164.940865278244
1164.51179844141
1164.0017973482609
1163.3985049277544
1162.6851643025875
1161.8385447263718
1160.825448319316
1159.5966254919767
1158.0746819674969
1156.1315414905548
1153.5218209326267
1149.7722032815218
1143.4266072511673
1131.002078384161
1159.3506097197533
1159.3016865104437
1159.1542076915503
1158.9060088992119
1158.5533560812473
1158.0907413810492
1157.5105630606413
1156.802653849125
1155.9535888135433
1154.9456727802753
1153.7554294764996
1152.3513155579567
1150.6901339292526
1148.711216032505
1146.326624006033
1143.4035908579826
1139.7322031855583
1134.9602808654308
1128.4638976454735
1119.192771911621
1105.548502087593
1152.5729803144932
1152.5004782378674
1152.2819538712502
1151.9143024981022
1151.3921768665314
1150.7077105939388
1149.8500872254372
1148.8049120008945
1147.5533017516136
1146.0705774128437
1144.3243548870087
1142.2717447280884
1139.855121076107
1136.9956248998642
1133.5829500555992
1129.4590646028519
1124.3920345902443
1118.0375411510468
1109.8896825313568
1099.2687476277351
1085.506813466549
1145.9400143921375
1145.844943434
1145.5584527552128
1145.0766503810883
1144.3928484916687
1143.4972434341908
1142.3764217495918
1141.0126503705978
1139.3828663825989
1137.457260131836
1135.1972669959068
1132.552740931511
1129.457896411419
1125.8255041837692
1121.5386090874672
1116.4390470981598
1110.3126847743988
1102.874461531639
1093.7660346627235
1082.594387292862
1069.0475262403488
1139.4967712163925
1139.3803995251656
1139.0298048257828
1138.4404864907265
1137.604731976986
1136.5112842321396
1135.1448326706886
1133.4852962493896
1131.506823837757
1129.1764343380928
1126.4521582126617
1123.2805544734001
1119.5933628082275
1115.3031239509583
1110.2976670861244
1104.4338039755821
1097.5316942930222
1089.3740549087524
1079.7182556390762
1068.3333612680435
1055.067127108574
1133.2857784032822
1133.1495755314827
1132.7393462657928
1132.0501690506935
1131.0736365318298
1129.7975370883942
1128.2053733468056
1126.275699019432
1123.981217622757
1121.2875992655754
1118.151932656765
1114.5207847952843
1110.3277798891068
1105.4907795190811
1099.9089143276215
1093.4602073431015
1086.0013411045074
1077.3726229667664
1067.4120647907257
1055.9818822145462
1043.00499355793
1127.3466546535492
1127.1922311782837
1126.7272587418556
1125.9465767741203
1124.8414000868797
1123.3990350961685
1121.6024575829506
1119.4297460913658
1116.8533337712288
1113.83906853199
1110.3450438976288
1106.3202513456345
1101.703058719635
1096.4197269678116
1090.3833247423172
1083.4937628507614
1075.640086531639
1066.7068033218384
1056.5856323242188
1045.1930422782898
1032.4907327890396
1121.7158134579659
1121.5448625683784
1121.0302801728249
1120.1668311357498
1118.94563549757
1117.353933274746
1115.374740421772
1112.9864018559456
1110.1620208621025
1106.8687807321548
1103.0671532154083
1098.7100907564163
1093.7422494888306
1088.0994896888733
1081.7089862823486
1074.4904971122742
1066.3594702482224
1057.2329151630402
1047.0382390022278
1035.724597811699
1023.2747354507446
1116.4263048171997
1116.240548670292
1115.6815684437752
1114.744192957878
1113.4196828007698
1111.6955509781837
1109.5553040504456
1106.9781211614609
1103.9384605884552
1100.40562748909
1096.3433145284653
1091.7092332839966
1086.4548865556717
1080.5257139205933
1073.861858844757
1066.3999238014221
1058.0760525465012
1048.8307936191559
1038.6154735088348
1027.3995645046234
1015.1777791976929
1111.5077348351479
1111.3088791966438
1110.7106543779373
1109.7080612182617
1108.2926820516586
1106.452557682991
1104.1720126867294
1101.4314533472061
1098.2071350812912
1094.470941901207
1090.1901941299438
1085.3276069164276
1079.841432929039
1073.6859831809998
1066.8126916885376
1059.17194211483
1050.715787768364
1041.4017865657806
1031.1975326538086
1020.0854938030243
1008.0674123764038
1106.9863250255585
1106.7760235071182
1106.1435407400131
1105.084125995636
1103.589809536934
1101.6493315696716
1099.2480441331863
1096.3678139448166
1092.9869261980057
1089.0800325870514
1084.6181600093842
1079.5688953399658
1073.8967542648315
1067.5638912916183
1060.5312441587448
1052.7602353096008
1044.2150411605835
1034.8655557632446
1024.6906065940857
1013.6811835765839
1001.8432602882385
1102.8849930763245
1102.6648213863373
1102.0028235912323
1100.8945443630219
1099.3325357437134
1097.306332707405
1094.802420258522
1091.8042240142822
1088.292121052742
1084.2435176372528
1079.6329979896545
1074.4326543807983
1068.6125795841217
1062.1416455507278
1054.9886132478714
1047.1236321926117
1038.5200836658478
1029.156858921051
1019.0206558704376
1008.1081700325012
996.4279639720917
1099.223510503769
1098.994950413704
1098.3078899383545
1097.1581885814667
1095.538949251175
1093.4405311346054
1090.8505709171295
1087.7540420293808
1084.1333484649658
1079.9684926271439
1075.2373198270798
1069.9159317016602
1063.979234457016
1057.4017171859741
1050.1584730148315
1042.2264866828918
1033.5861155986786
1024.2228479385376
1014.1289608478546
1003.3050343990326
991.7612314224243
1096.018688082695
1095.7831200361252
1095.0751376152039
1093.8909126520157
1092.2240887880325
1090.065825343132
1087.4048601388931
1084.2276215553284
1080.5183808803558
1076.2594838142395
1071.431652188301
1066.0144418478012
1059.986802816391
1053.3278230428696
1046.017644405365
1038.0385575294495
1029.376188993454
1020.0208787918091
1009.9688911437988
999.2234823703766
987.7958080768585
1093.2845776081085
1093.0432810783386
1092.318208694458
1091.10582280159
1089.400267481804
1087.1934357881546
1084.4750640392303
1081.2328815460205
1077.4528045654297
1073.1192082166672
1068.2152613401413
1062.723401427269
1056.6258852481842
1049.9054834842682
1042.5462942123413
1034.534675836563
1025.8602087497711
1016.5167920589447
1006.5035457611084
995.8255822658539
984.4946708679199
1091.032660484314
1090.7868206501007
1090.0482016801834
1088.8135209083557
1087.077358841896
1084.8322440385818
1082.0687699317932
1078.7757711410522
1074.9405447244644
1070.5491471290588
1065.5867450237274
1060.0380935668945
1053.8880660533905
1047.1222984790802
1039.7279160022736
1031.6943349838257
1023.0140564441681
1013.6835618019104
1003.7040030956268
993.0817744731903
981.8290219306946
1089.2720581293106
1089.0227768421173
1088.2739020586014
1087.0223588943481
1085.2630832195282
1082.9891177415848
1080.191745042801
1076.8606811761856
1072.984314441681
1068.5500161647797
1063.5444988012314
1057.9542889595032
1051.7662358283997
1044.9681112766266
1037.5492663383484
1029.5013370513916
1020.8189151287079
1011.5003051757812
1001.5480711460114
990.969476222992
979.7768921852112
1088.009675860405
1087.7579870224
1087.0019402503967
1085.738614320755
1083.963206410408
1081.6691366434097
1078.848190665245
1075.4907240867615
1071.5859122276306
1067.122067451477
1062.0869994163513
1056.4684817790985
1050.2547416687012
1043.4350261688232
1036.000209569931
1027.943431854248
1019.2606873512268
1009.9514908790588
1000.0193319320679
989.47203373909
978.3220975399017
1087.2503405809402
1086.9972279071808
1086.2369403839111
1084.9666508436203
1083.1817165613174
1080.8757874965668
1078.0409553050995
1074.6679631471634
1070.7464606761932
1066.2653250694275
1061.213021159172
1055.5780625343323
1049.3494896888733
1042.5174148082733
1035.0735998153687
1027.0120558738708
1018.3295831680298
1009.0263888835907
999.1064867973328
988.5780124664307
977.4535343647003
1086.996913433075
1086.743329524994
1085.9816389083862
1084.709046125412
1082.920961856842
1080.6111139059067
1077.7716960906982
1074.3935815095901
1070.466578245163
1065.9797517061234
1060.9217845201492
1055.2814356088638
1049.0480139255524
1042.2119171619415
1034.7651987075806
1026.702154636383
1018.0198485851288
1008.7187123298645
998.8029298782349
988.2807374000549
977.1647236347198
1087.2503399848938
1086.9972273111343
1086.2369397878647
1084.9666502475739
1083.181715965271
1080.8757869005203
1078.040954709053
1074.667962551117
1070.7464599609375
1066.265324473381
1061.2130204439163
1055.5780619382858
1049.3494889736176
1042.5174140930176
1035.073599100113
1027.012055158615
1018.329582452774
1009.026388168335
999.106486082077
988.5780117511749
977.4535336494446
1088.009674668312
1087.757985830307
1087.0019390583038
1085.738613128662
1083.9632052183151
1081.6691354513168
1078.8481893539429
1075.4907228946686
1071.5859109163284
1067.1220661401749
1062.0869981050491
1056.468480348587
1050.2547402381897
1043.4350247383118
1036.0002081394196
1027.9434304237366
1019.2606859207153
1009.9514894485474
1000.0193305015564
989.4720323085785
978.3220963478088
1089.2720592021942
1089.022777915001
1088.2739030122757
1087.0223599672318
1085.2630842924118
1082.9891188144684
1080.1917462348938
1076.8606823682785
1072.9843155145645
1068.5500173568726
1063.5444999933243
1057.954290151596
1051.7662372589111
1044.968112707138
1037.5492677688599
1029.501338481903
1020.8189165592194
1011.5003066062927
1001.5480723381042
990.9694774150848
979.7768933773041
1091.0326617956161
1090.786821961403
1090.0482029914856
1088.813522219658
1087.0773602724075
1084.8322454690933
1082.0687713623047
1078.775772690773
1074.9405462741852
1070.5491486787796
1065.5867466926575
1060.0380951166153
1053.8880677223206
1047.1223003864288
1039.7279176712036
1031.6943368911743
1023.0140581130981
1013.6835634708405
1003.7040047645569
993.0817763805389
981.8290235996246
1093.284577012062
1093.0432804822922
1092.3182080984116
1091.1058220863342
1089.4002668857574
1087.1934351921082
1084.475063443184
1081.232880949974
1077.452803850174
1073.1192075014114
1068.2152606248856
1062.7234007120132
1056.6258845329285
1049.9054827690125
1042.546293258667
1034.5346751213074
1025.8602080345154
1016.516791343689
1006.5035450458527
995.8255815505981
984.4946701526642
1096.018690109253
1095.783122062683
1095.0751396417618
1093.890914797783
1092.2240909337997
1090.0658274888992
1087.4048624038696
1084.2276238203049
1080.5183831453323
1076.2594861984253
1071.4316546916962
1066.0144443511963
1059.986805319786
1053.327825665474
1046.017647266388
1038.0385603904724
1029.376191854477
1020.020881652832
1009.9688937664032
999.223484992981
987.7958106994629
1099.2235128879547
1098.9949527978897
1098.3078923225403
1097.1581909656525
1095.53895175457
1093.4405336380005
1090.8505734205246
1087.7540446519852
1084.1333510875702
1079.9684953689575
1075.2373226881027
1069.9159346818924
1063.9792374372482
1057.4017202854156
1050.158476114273
1042.226490020752
1033.5861186981201
1024.2228510379791
1014.1289641857147
1003.3050374984741
991.7612345218658
1102.8849956989288
1102.664824128151
1102.002826333046
1100.8945471048355
1099.332538485527
1097.3063354492188
1094.802423119545
1091.8042269945145
1088.2921241521835
1084.2435207366943
1079.6330012083054
1074.4326577186584
1068.6125829219818
1062.1416491270065
1054.98861682415
1047.1236357688904
1038.5200872421265
1029.1568627357483
1019.0206596851349
1008.1081736087799
996.4279675483704
1106.986319899559
1106.776018500328
1106.1435356140137
1105.0841208696365
1103.5898042917252
1101.6493262052536
1099.2480385303497
1096.36780834198
1092.9869203567505
1089.080026626587
1084.618153810501
1079.5688890218735
1073.8967477083206
1067.5638846158981
1060.5312373638153
1052.7602282762527
1044.2150342464447
1034.8655486106873
1024.690599679947
1013.6811766624451
1001.8432538509369
1111.507729291916
1111.3088736534119
1110.7106487751007
1109.7080554962158
1108.2926762104034
1106.4525518417358
1104.1720066070557
1101.4314470291138
1098.2071286439896
1094.4709352254868
1090.190187215805
1085.3275997638702
1079.841425538063
1073.6859755516052
1066.8126839399338
1059.1719341278076
1050.7157796621323
1041.4017786979675
1031.1975247859955
1020.0854856967926
1008.0674047470093
1116.4262987971306
1116.2405425906181
1115.6815623641014
1114.744186758995
1113.419676542282
1111.695544540882
1109.5552974939346
1106.9781143665314
1103.9384535551071
1100.4056202173233
1096.34330701828
1091.7092254161835
1086.45487844944
1080.5257054567337
1073.861850142479
1066.3999148607254
1058.0760434865952
1048.8307844400406
1038.6154644489288
1027.3995554447174
1015.177770614624
1121.7158222794533
1121.5448713898659
1121.030289053917
1120.1668402552605
1118.94564473629
1117.3539427518845
1115.3747501969337
1112.9864119887352
1110.16203135252
1106.8687916994095
1103.0671645402908
1098.710102558136
1093.7422618865967
1088.0995026826859
1081.7089997529984
1074.4905109405518
1066.359484553337
1057.2329297065735
1047.0382536649704
1035.7246123552322
1023.2747497558594
1127.3466532230377
1127.1922297477722
1126.7272573113441
1125.9465752840042
1124.8413985967636
1123.3990335464478
1121.6024559736252
1119.4297444224358
1116.8533321022987
1113.8390668034554
1110.3450421094894
1106.3202494382858
1101.703056693077
1096.4197249412537
1090.38332259655
1083.4937607049942
1075.6400842666626
1066.7068010568619
1056.5856300592422
1045.1930400133133
1032.490730881691
1133.2857882380486
1133.149585366249
1132.7393562197685
1132.0501791238785
1131.073646903038
1129.797547698021
1128.2053843140602
1126.2757104039192
1123.9812294840813
1121.2876117229462
1118.1519457101822
1114.5207985639572
1110.32779443264
1105.4907948970795
1099.9089305400848
1093.46022439003
1086.0013589859009
1077.3726415634155
1067.4120837450027
1055.981901049614
1043.0050122737885
1139.4967696666718
1139.3803979754448
1139.029803276062
1138.4404848217964
1137.6047303080559
1136.511282503605
1135.144830942154
1133.4852944612503
1131.5068219304085
1129.1764323115349
1126.4521561861038
1123.280552327633
1119.5933604836464
1115.3031215071678
1110.2976645231247
1104.433801293373
1097.5316915512085
1089.3740520477295
1079.718252658844
1068.3333582878113
1055.0671246051788
1145.9400036334991
1145.8449326455593
1145.5584418475628
1145.0766392946243
1144.3928371369839
1143.4972317516804
1142.376409649849
1141.0126377344131
1139.3828532099724
1137.4572462439537
1135.1972523331642
1132.552725315094
1129.4578798413277
1125.825486421585
1121.5385900735855
1116.4390267133713
1110.3126628994942
1102.8744383454323
1093.7660104036331
1082.594362616539
1069.0475022792816
1152.5729817152023
1152.5004796683788
1152.281955331564
1151.914303958416
1151.3921783864498
1150.7077121436596
1149.8500888347626
1148.8049136698246
1147.553303539753
1146.0705792605877
1144.3243568837643
1142.2717468738556
1139.8551234006882
1136.9956274032593
1133.5829527974129
1129.4590676426888
1124.3920379281044
1118.0375449061394
1109.8896867632866
1099.2687520980835
1085.506818473339
1159.35060018301
1159.3016769438982
1159.1541980355978
1158.9059990644455
1158.5533460080624
1158.0907309949398
1157.5105522871017
1156.8026426136494
1155.9535769820213
1154.9456602633
1153.7554161846638
1152.351301342249
1150.6901186406612
1148.7111994326115
1146.3266059160233
1143.4035709798336
1139.7321811914444
1134.9602564275265
1128.4638705551624
1119.1927425861359
1105.548473238945
1166.2258658483624
1166.2012247145176
1166.1269372105598
1166.0018915981054
1165.8241678401828
1165.5909291431308
1165.2982512488961
1164.940869152546
1164.5118025243282
1164.0018016695976
1163.3985095471144
1162.6851692646742
1161.8385500758886
1160.825454160571
1159.596631899476
1158.074689090252
1156.1315495222807
1153.5218301862478
1149.7722142785788
1143.4266218543053
1131.002096503973
1173.1502245922586
1173.1502263589412
1173.1502317520321
1173.1502410609253
1173.1502548040792
1173.1502737902404
1173.1502992208284
1173.1503328547456
1173.1503772790466
1173.1504363405165
1173.1505159564645
1173.1506251586102
1173.1507799048713
1173.1510005542468
1173.151356051364
1173.151784817168
1173.1530387661292
1173.1502170602407
1173.15446909997
1172.8929643135634
1171.9479511617537
1082.3703352212906
1086.8068041801453
1061.5770884752274
1124.3276520967484
1088.3536459207535
1082.370335817337
1126.2815509438515
1129.8377987742424
1166.3558471798897
1164.6008196920156
1010.7947492599487
1166.9748473018408
1012.5116865634918
1033.0325920581818
1100.9981546401978
1118.8334359526634
1050.4082382917404
1093.6364389657974
1127.9177314639091
1073.3646447658539
1114.8827731013298
1124.4905644655228
1071.762815117836
1016.7747273445129
1082.9861444234848
1124.8593356609344
1055.8666552305222
1100.998147368431
1097.5630688667297
1122.804709494114
1031.3925688266754
1123.0140701532364
1091.1217263936996
988.950031042099
1144.0677236616611
1049.8473026752472
1131.3354123234749
1027.834997177124
1127.697114288807
1069.7498420476913
1112.4121460318565
1012.5116822719574
1142.793832540512
1035.9603469371796
1120.3649932146072
1072.2152713537216
1113.9189341664314
1116.1556168794632
1162.742168545723
1057.1367757320404
1071.881985425949
1023.6227762699127
1044.1993188858032
1122.826659142971
1086.3167281150818
1153.660614311695
1090.0904545783997
1076.923088669777
1142.5860568583012
1150.667065501213
1051.5359779596329
1169.6849318034947
1079.4530544281006
1038.0262823104858
1088.3276175260544
1100.7736098766327
1121.8492847681046
1117.1908583045006
1076.1272901296616
1169.4837182424963
1075.19606423378
1061.5770885944366
1101.4042649269104
1139.7177156209946
1161.2786416709423
988.9500312805176
1147.8232685923576
1126.2815388441086
1062.0978254079819
1042.2882130146027
1131.635701239109
1070.3342566490173
1157.4939263612032
1089.8974912166595
1075.196069598198
1031.9111688137054
1133.1176097989082
1129.6961284279823
1028.6435420513153
1047.361410498619
1086.8068041801453
1082.0354796648026
1169.6725894548
1001.176515340805
1103.5723561048508
1090.01422894001
1118.310463130474
1160.8584530353546
1008.7955162525177
1116.1345228552818
1027.3997490406036
1101.009986281395
1114.1844072937965
1084.773444056511
1008.7955162525177
1092.7639285326004
1105.9336302280426
1130.7728091478348
1117.5057646036148
1137.2124361991882
1113.4510427117348
1066.8275810480118
1127.6971291303635
1092.1658713817596
1131.9146370887756
1087.5747814178467
1086.1451760530472
1155.3939528763294
1088.3536657094955
1016.4805452823639
1051.662185549736
1077.6837737560272
1044.9998396635056
1160.217712879181
1148.8986591994762
1095.9263229370117
1162.7790119051933
1059.6873902082443
1138.7271332740784
1057.6692249774933
1135.2119587659836
1088.175657749176
1040.045473575592
1031.3925771713257
1106.6382656097412
1107.343104481697
1086.0454630851746
1082.6633608341217
1021.7548143863678
1090.5836969017982
1090.7501201629639
1098.9686567783356
1034.8422095775604
1084.773444056511
1030.5176980495453
1018.183337688446
1077.7502286434174
1102.440036058426
1040.3054900169373
1138.7941725552082
1022.0325508117676
1120.3650072813034
1078.3773792982101
1019.9608128070831
1087.3143672943115
1018.0971736907959
1071.7628113031387
1134.304352402687
1060.9945477247238
1169.6725972779095
1155.3939577043056
1051.662166595459
1083.5074605941772
1167.4842931702733
1104.0185995101929
1074.4621559381485
1169.3668645508587
1124.454529285431
1134.3043652176857
1162.1783934384584
1061.8270500898361
1108.756384730339
1099.6348160505295
1083.064149737358
1127.8564083576202
1103.9946113824844
1085.8749412298203
988.3549358844757
1000.7060310840607
1104.8818427324295
1130.1343697309494
1127.8564115166664
1085.9484541416168
1130.6580276191235
1149.0074532032013
1110.2404314875603
1135.852211356163
1090.5837070345879
1036.6964864730835
1086.5558403730392
1116.1345311403275
1022.0325589179993
1108.3751323223114
1055.8666560649872
1010.6472826004028
1064.4924033880234
1141.7305334806442
1019.9608144760132
1100.773602604866
1160.8584463447332
1076.923094034195
1041.0563168525696
1070.8699880838394
1084.219969034195