# vtk DataFile Version 3.0
d:\study\Notebook\Juno\MPC\Open\examples\heat_transfer_solid\3D_MetaFEM_Result.vtk
ASCII
DATASET UNSTRUCTURED_GRID
POINTS 23703 float
18.17064732313156 4.230950772762299 58.8586151599884
17.09662824869156 3.1394142657518387 58.951324224472046
18.274830281734467 3.2966289669275284 58.83985757827759
16.931922733783722 4.0135398507118225 58.000630140304565
17.75989681482315 4.584268480539322 57.8910231590271
17.434431612491608 4.480305686593056 58.87421369552612
18.400274217128754 4.46377769112587 57.70218372344971
17.62479543685913 3.8080092519521713 57.48177170753479
16.44483357667923 2.6343917474150658 57.75533318519592
17.50943809747696 2.851286344230175 57.89995193481445
18.48430186510086 2.824707515537739 57.404881715774536
18.60533505678177 4.687916859984398 56.448596715927124
16.444353759288788 4.180316999554634 56.75068497657776
17.74015575647354 4.764732345938683 57.06358551979065
17.038078606128693 4.847506061196327 57.707083225250244
15.787987411022186 2.1254556253552437 56.55007362365723
-10.229668766260147 4.314856976270676 55.74445724487305
-10.231610387563705 3.514750301837921 55.74445724487305
17.530588805675507 4.0419600903987885 56.21521472930908
18.54480803012848 3.6224674433469772 56.56230449676514
15.96551239490509 3.236893191933632 56.2434196472168
17.32150912284851 2.3216795176267624 56.45853281021118
16.39910638332367 1.8105022609233856 55.37151098251343
18.656328320503235 3.8615766912698746 55.569058656692505
18.716858327388763 2.300781011581421 55.811768770217896
15.371352434158325 2.930027060210705 55.05252480506897
18.791887164115906 4.9194373190402985 54.97661828994751
15.738539397716522 4.3476298451423645 54.98951077461243
17.479868233203888 5.148540437221527 55.6460440158844
16.60933941602707 5.24471178650856 56.44458532333374
15.006014704704285 1.519568543881178 55.115216970443726
-9.973451495170593 3.838474303483963 54.76193428039551
-9.90130826830864 3.0456943437457085 54.43100929260254
-9.858343750238419 4.530368000268936 54.40911650657654
-8.840271830558777 3.88101227581501 55.54922819137573
-8.913332223892212 4.857232421636581 54.71147298812866
-9.114708006381989 4.710273444652557 55.63880801200867
-8.849392086267471 2.7271494269371033 54.41599488258362
-8.082190155982971 3.736022114753723 55.00461459159851
-8.859600871801376 3.1245222315192223 55.72063326835632
-9.650757163763046 3.7378594279289246 53.56296896934509
17.320536077022552 4.316696524620056 54.275161027908325
17.321021854877472 3.319188207387924 55.36684989929199
16.270898282527924 3.115505166351795 54.529500007629395
17.625045776367188 1.7840184271335602 54.7898530960083
16.403228044509888 1.356405857950449 54.07093167304993
18.92014741897583 3.3730484545230865 54.01561260223389
18.989303708076477 1.6869833692908287 53.94538640975952
15.220776200294495 2.911822497844696 53.692156076431274
18.943269550800323 5.157348141074181 53.24656963348389
15.666872262954712 4.619574174284935 53.65748405456543
17.48092621564865 5.4814692586660385 53.949159383773804
16.09445810317993 5.7217225432395935 54.928433895111084
17.743368446826935 1.1999081820249557 53.06931138038635
19.285432994365692 1.0198299773037434 51.91676616668701
16.486208140850067 1.0295565240085125 52.676159143447876
14.691528677940369 1.05338953435421 53.23922634124756
-9.513279050588608 2.494661509990692 52.88801193237305
-8.457773923873901 3.830135613679886 53.83145809173584
-9.431707113981247 4.7779809683561325 52.87486910820007
-7.264791429042816 3.922411799430847 54.09993529319763
-8.640047162771225 5.030498653650284 53.79417538642883
-8.174490928649902 5.119218677282333 54.888761043548584
-8.130871504545212 2.3633845150470734 53.8318395614624
-7.492310553789139 2.5342755019664764 55.06340265274048
-8.636078983545303 3.696439415216446 52.56741642951965
-9.153266251087189 3.5915154963731766 51.69805288314819
-9.04507264494896 1.8297703936696053 51.02618932723999
17.161203920841217 3.484852612018585 52.90428400039673
18.150028586387634 2.742745913565159 53.028225898742676
19.1016286611557 4.0578823536634445 52.11641192436218
19.248245656490326 0.5622634198516607 50.02649426460266
17.37990975379944 2.112443372607231 52.04084515571594
19.194453954696655 2.644141763448715 52.063316106796265
19.300194084644318 1.9459707662463188 50.597184896469116
14.855052530765533 2.164982818067074 52.05947756767273
19.0391942858696 5.404200032353401 51.21776461601257
15.325012803077698 4.1450366377830505 51.62769556045532
17.4345001578331 5.730804055929184 51.928311586380005
15.905281901359558 5.859089270234108 52.83663272857666
17.59861707687378 0.7400342263281345 51.177412271499634
15.742184221744537 0.7377318572252989 51.64283514022827
14.342190325260162 0.5355475004762411 51.15532875061035
-7.940741628408432 1.9662398844957352 52.68561840057373
-6.612933427095413 3.0923647806048393 53.679049015045166
-8.919916301965714 5.075015500187874 51.034390926361084
-8.009614050388336 5.3974345326423645 52.364760637283325
-6.459296494722366 4.371459037065506 52.92958617210388
-7.379579544067383 5.512180179357529 53.66494655609131
-6.173699349164963 1.8126150593161583 53.82275581359863
-7.086896151304245 1.4997917227447033 51.856160163879395
-8.783503621816635 2.938579022884369 50.21414756774902
-7.621400058269501 3.6550194025039673 51.571863889694214
-8.720172196626663 3.9444006979465485 50.13267397880554
-6.803577393293381 0.9362866170704365 49.7634083032608
-8.509175479412079 1.068752445280552 48.89519512653351
-8.414766937494278 3.246532753109932 48.886844515800476
18.49859654903412 -0.8292014710605145 44.022777676582336
19.166871905326843 -0.43900604359805584 45.8901047706604
17.987598478794098 4.169834032654762 50.69813132286072
19.186198711395264 3.5922564566135406 50.210970640182495
17.617899179458618 5.847552791237831 50.05549192428589
19.29078847169876 2.040395513176918 48.80586862564087
17.73582398891449 0.3369260812178254 49.463820457458496
19.210533797740936 0.09822570718824863 48.10948669910431
16.936004161834717 2.9354682192206383 50.17850399017334
14.68580961227417 2.278679795563221 50.14602541923523
19.105876982212067 3.8737524300813675 47.664424777030945
19.029146432876587 5.6296225637197495 48.84690046310425
15.14507532119751 4.25625815987587 49.65290129184723
17.094238102436066 5.979963392019272 48.65545928478241
15.672987699508667 6.027767062187195 50.26803016662598
19.18228268623352 1.7715539783239365 46.81352972984314
15.881624817848206 0.2854180056601763 49.71386194229126
13.922661542892456 -0.08634091936983168 48.6527293920517
17.532509565353394 -0.6471849512308836 45.00795602798462
-5.461888760328293 2.9082495719194412 52.41509675979614
-8.320417255163193 5.422955006361008 48.87849688529968
-5.251552909612656 4.588226228952408 51.31847858428955
-7.246064394712448 5.684895068407059 50.65892934799194
-6.51746466755867 5.901866778731346 52.14463472366333
-4.697462171316147 1.0557805188000202 52.16487646102905
-5.087212473154068 0.4611472599208355 49.01339411735535
-7.543633133172989 0.586054939776659 47.233036160469055
-6.106868386268616 3.054901212453842 49.5436429977417
-7.213642448186874 4.238927736878395 49.21106994152069
-5.2522458136081696 0.03126682422589511 46.50087654590607
14.384835958480835 -5.922986567020416 38.09188902378082
14.401981234550476 -3.252188488841057 42.99014210700989
13.15058022737503 -4.064293950796127 42.63969361782074
5.42200468480587 -7.791358232498169 39.48207199573517
-7.529249787330627 2.571846917271614 47.34555780887604
-7.6857790350914 4.0408264845609665 47.71043062210083
-6.791703402996063 1.895531453192234 46.05336785316467
-6.516246497631073 0.07243935251608491 45.46441733837128
0.8613264188170433 -5.169948190450668 41.90780222415924
1.532521564513445 -5.985561013221741 41.08514487743378
2.6497988030314445 -6.515174359083176 40.16803801059723
14.606910943984985 -5.835779011249542 38.25843930244446
17.896971106529236 -1.180481445044279 42.34168231487274
7.320008426904678 -7.912378013134003 40.945303440093994
14.396046102046967 -6.1164602637290955 37.10828125476837
16.988441348075867 -0.9331715293228626 43.63375008106232
15.278202295303345 -2.168233133852482 42.83750653266907
17.8351491689682 0.12961796019226313 42.361149191856384
14.303497970104218 -2.037387527525425 44.186365604400635
16.601894795894623 -0.2665152307599783 47.241321206092834
15.332457423210144 -0.921292882412672 43.86879801750183
16.076020896434784 -0.6933827884495258 44.884055852890015
14.186280965805054 -0.5914990790188313 45.61014473438263
18.131953477859497 1.0064917616546154 43.21569800376892
18.76346617937088 1.4454377815127373 44.76948082447052
18.776506185531616 3.52691113948822 45.357489585876465
17.00344830751419 4.181904718279839 48.020538687705994
16.912658512592316 2.38384623080492 47.38561511039734
14.64303433895111 2.9961388558149338 47.95770347118378
18.773069977760315 5.6795477867126465 46.17871940135956
17.340141534805298 5.93084916472435 46.812015771865845
15.398161113262177 6.227327883243561 47.2291499376297
16.50405526161194 1.832953467965126 45.37228345870972
14.614222943782806 1.7345141619443893 46.39471769332886
16.09545201063156 1.2820604257285595 43.358951807022095
17.504745721817017 1.2899325229227543 41.66637659072876
18.167051672935486 5.375355109572411 43.62054169178009
-3.798969089984894 2.8632694855332375 50.20044445991516
-7.37227126955986 5.5029358714818954 47.27709889411926
-6.240527331829071 5.889684334397316 48.87692630290985
-4.174356535077095 4.868233576416969 49.705711007118225
-5.352084711194038 6.264719367027283 50.41425824165344
-2.953875809907913 0.3280555596575141 50.07803440093994
-3.30192893743515 -0.12955482816323638 47.26114273071289
-2.5071144104003906 2.021688222885132 48.561638593673706
-3.4209929406642914 -0.3409966826438904 45.80817520618439
-4.505816474556923 1.779486984014511 47.50351011753082
-4.098466783761978 1.3358733616769314 45.321667194366455
-5.427524447441101 4.554321244359016 48.03180992603302
10.697169601917267 -7.374686002731323 37.369006872177124
[...]
POINT_DATA 23703
SCALARS T float 1
LOOKUP_TABLE default
293.40161295052667
293.3854408729885
293.39732934103125
293.5071790159068
293.49885765703925
293.3945226037865
293.4826633656588
293.60692738078296
293.45766176414924
293.5119879597161
293.5017399051546
293.56046511822785
293.6239095397663
293.57388407642316
293.4787686485358
293.5121149825286
293.35906486383897
293.36416270527724
293.7597275106835
293.6223376775077
293.6615398553333
293.64828436586566
293.69780703977887
293.703654642481
293.59704467140114
293.71105169938176
293.6432038842431
293.7349835705599
293.684766513488
293.5528002365058
293.5183633043252
293.49029607718313
293.4923547694057
293.4959563346462
293.49245489838086
293.5354910599948
293.42597340315007
293.58823747413106
293.5699235902679
293.43831938693734
293.6124420207975
293.961620064147
293.8853734568786
293.9321600957247
293.7704729669238
293.7786360308706
293.8109554678354
293.67480813521445
293.81383042905094
293.7137809990197
293.8103728880954
293.77916924838974
293.5862488163738
293.84976334767737
293.6981273310465
293.8698001819157
293.57718478330247
293.5976245322675
293.74945243203854
293.6135837889786
293.67479234177364
293.6240230142481
293.4855426751837
293.6629920184625
293.4718119638484
293.85296228049987
293.7763408046865
293.68136106303774
294.14963238068873
294.05153876284635
293.8904541583353
293.7573256458893
294.16180656811247
293.8926647779385
293.9197185441364
293.8512090818985
293.7693033514369
293.94199153967133
293.8664618024205
293.6820709916585
293.94443171047794
293.8547709322391
293.616801947658
293.7610332794707
293.7063642288786
293.71113259581574
293.73868371571876
293.7838086579006
293.5713888322817
293.5319192077503
293.8350346357587
293.8697541611271
294.0590796131178
293.8737115958779
293.9473183140804
293.6981251391205
293.9193270579117
293.9657482476933
293.80012900213546
294.2079816471091
293.989719352071
293.92393139053
294.01354998805596
294.00074065807706
293.7868311127201
294.37959250702147
293.9731349165999
294.05434384849735
293.79676851984243
294.01557902402294
293.9535922083541
293.7526858970753
294.0948556077922
293.9642249661057
293.6420301013513
294.2378715225088
293.82389406559986
293.74557164644744
293.90436841087023
293.8540666637838
293.65979840072595
293.5921939485504
294.00838089947456
293.756757306051
294.34769135479365
294.18065754271197
294.09894590133564
294.9624521758782
295.1988345591134
295.4546017443163
295.37559896948096
294.0289083616487
293.9896675558946
294.07666217153536
293.81820769055616
295.14145254211843
295.15899680609624
295.3823270392306
294.9802932597754
294.22657379496155
295.0293684750334
294.83109301609323
294.53352922466064
295.2999554510797
294.6400823208146
295.0938544371847
294.13604435593055
295.16276520628867
294.56487430982145
294.50339913188174
294.5327553556182
294.25360080838624
294.18112756140806
294.4091383011856
294.58872954957536
294.0843707213388
293.8201175325356
293.98413324559965
293.75112666798117
294.8941594937014
294.2683074479441
295.5888140589081
294.9816956403977
293.93449403000847
293.9953727854752
293.81723161945587
293.9477958286933
293.9771960940673
293.7183749845451
293.6466251453199
294.10968080847624
294.0750757766633
294.2746558628206
294.52206278851355
294.7058911304637
294.3554609578706
295.3861795525005
295.55224497868636
295.1735139686486
295.05586328899045
294.22743650186214
293.8631862776341
295.24948296325516
295.1155403764817
295.07857027900394
295.280373269179
295.3181226488907
295.3030980974506
295.1782503597114
295.26236624812213
294.9365231910043
295.3243069996705
295.1553651365806
295.5900903294056
295.47607808682403
295.3573285054036
295.25717480333424
295.4388021345753
295.28349746362386
295.5026216345216
295.5106621198526
295.4367245794679
295.5402566076617
295.5870332869356
295.1660045294473
295.30373721944613
295.1879619152725
295.1770763481275
295.27815377124597
294.8805730496396
296.0308843718485
296.1063605497996
294.86208423042274
295.26452190190224
295.76565352766545
295.57967682194516
295.6034884684499
296.09196078881234
295.42251725124913
295.24822577009195
296.6097836100856
296.39217138482167
295.66888647832303
295.3934792037343
295.52018554863974
295.4260922551405
294.8801832201131
294.921758028239
295.8718948715304
295.6620528898696
295.54323136959005
295.6343161262867
296.28660120101034
295.56816275394385
295.56305562486574
295.5057487738901
295.3039406637304
295.60440621933043
295.2923224906711
296.4932492647847
295.2644447125941
295.1765373285027
295.3605531812828
296.562701095089
295.37203952525414
294.1321469111765
293.8611277183084
294.2542307616425
296.1006216011822
296.0354239549488
295.72104026865605
296.4802390302208
295.0677995977643
295.1750949733051
295.39608638901575
295.14333773685905
294.94754495205274
295.63876678138206
295.58340279189525
295.39415756030644
295.6940973921666
294.7186959398067
294.7515242282581
295.35224248238006
295.9655464802418
294.8930298124937
295.89806282927725
295.45002104872947
295.44725463295117
295.3542531810262
295.72040781932395
296.78044019270806
295.84952245686384
295.9627431525093
295.1363005485848
296.12773229239394
296.1785243920241
295.0774865506279
296.0827454965236
295.3898616561403
294.64818111179017
294.7369304131369
294.94386340652636
295.3650103113596
295.43699320723493
296.08903038802254
296.8076820881381
296.4848345006885
296.61676911076677
294.9975682393832
295.3580689697113
294.5121705967667
294.75243693701583
294.2068756983457
294.3580044287478
294.1307084907168
293.9033823354181
294.97972707595096
295.66044910852287
296.27312342643745
295.67219822386704
295.07717468750917
294.2826085984452
294.1237214238748
294.024666521704
293.75936502157975
294.5600931058251
295.2212933822843
294.629935437963
295.24297526645785
294.2904462872028
293.75582517834124
296.8311885499334
295.3525915264918
295.00118666651014
294.7587942290275
295.01889212415296
294.36702376381953
295.3408221636988
294.5128044827709
295.1825355046863
294.7274263050786
295.23146772352135
296.42378210375796
295.1086778060539
294.78082039316314
295.0231935923945
294.8719344952535
295.1932603204049
294.66351551643123
295.6032839584213
295.3711519111278
295.7300372165893
296.65818090166914
295.63436152909014
295.7085307987562
295.8666360924782
296.09363439004585
296.12122508130244
295.65922833214023
295.75897018682616
296.8049447124653
295.74702615221287
295.67491752200334
296.8830438858744
296.4803001355045
296.8448910663993
296.43333654648654
296.93067612525476
295.2657353914806
295.1039153936419
295.77407411799174
295.7245364602137
295.6304976693576
295.6457192851458
295.6369819863023
295.8624029287757
295.1510771849245
295.2898372973808
294.1156390560899
296.66856745825675
295.9506649532008
295.3884557367995
295.33102412562596
296.0289402076066
296.16682097999444
296.50817273686073
296.42690020458775
296.7108310987999
296.3276135154999
296.56425860447604
296.66774645463056
297.0380341970682
297.247603747639
297.22835988649837
296.9340585823518
297.4815805453711
296.8776954380232
296.9018079926208
297.60412404725054
297.1362493445242
296.79274793581027
296.6661190521734
296.5910501604519
296.81177795413845
295.81649207899216
295.44245288028543
295.3424642908231
295.7095980214368
295.53741957027086
296.44139291971345
296.0413149431696
297.1299296159059
297.62180929683154
297.08961506696323
296.0673593178644
295.42312663212334
297.6487828289367
297.5289526905423
296.6536683979217
297.9142052889462
298.3601797521982
297.15843933602224
297.34211608980945
297.2572120970663
297.78706422798496
297.17348826586687
297.5371935643206
297.54943551161637
298.1770944891675
297.6744443675484
297.81826897756883
296.53648138927554
296.94610220543717
297.57536308405224
296.5741486789602
295.2949394405581
295.2994464954571
296.75557396646917
294.7658319018082
293.84193841184316
294.47883596250244
297.1468829667896
295.9523129757401
296.76128881965354
296.3505134180182
297.7610280530438
295.0494922663039
295.1800642269542
295.1665520588133
294.8435895367092
295.20350061833943
295.12637572739214
294.9314401418319
295.1926559427698
295.5434391565934
295.5258186494102
295.2169277138907
295.9582316394795
295.35424754842643
295.3312625102617
296.42952655647906
297.08939722118043
297.74663287350234
296.55643823293104
295.4540772415004
296.83300538947526
295.1572189700176
295.7227865028468
295.8393777707104
295.570571029704
297.1314117572278
297.8842566233949
297.9374360706069
296.5316756617945
296.17190523453905
296.3598270112754
297.72736805144206
296.5200184489507
295.3469235895753
295.06336505924855
295.77600175444366
295.53418466564983
295.3011128838121
295.16050305652413
295.6530841192923
295.6586244399558
295.425505658611
295.57407909500506
295.5540162912745
295.7685652723854
297.54498088929836
296.2518845514762
295.91032405687423
296.03814700210563
295.72330070688264
295.47250417574105
296.0672085353482
295.61366396746564
295.59657039379323
297.0067971113107
296.25516263979716
295.7427902108438
295.3981728057364
295.56558736762713
295.786318486513
295.68129890764254
295.5348883581799
295.7557513861983
295.40965989635384
295.7813063674754
295.7862057504608
296.6545470164375
295.4449167485739
295.1001549155044
295.1757592860462
294.81919550914637
294.951948679809
294.4422989963418
297.952643915474
297.1142127873158
297.3661321339098
297.6452440426397
297.5123706388557
296.6800429444176
295.6897277311704
296.59895701079006
295.48159187965337
295.1612860744785
294.9335122430102
296.1930169780764
294.45563175183594
295.2139292064554
296.6477260397867
295.5752805877005
294.3215810577428
294.1469974290893
293.868161048063
295.62091410999716
294.98859477508387
296.69706612560026
296.42190095467214
295.0533317689609
296.99716420947675
295.3982200935051
295.4401391413501
295.362079619262
295.4165392196464
295.0429566029447
296.2040509087193
295.5275011311846
294.8677549894198
295.40818149410075
294.37197117115824
295.1570744358524
296.9031248461213
297.6157227730668
296.34421386597523
297.12998248458416
295.34859172308825
294.75840431811963
295.3960758438867
295.20609584472584
296.1304057321365
295.36081052699893
294.73129504723573
295.0546183377659
295.6391880626163
294.94375304093387
295.53134359096356
295.7584039266566
295.28756408920566
297.1777204579059
296.57727323515286
296.9270803342195
296.1342334689558
296.2576138702219
296.1453111325543
296.866674071211
297.7389285043137
296.53838772038716
297.49096147863094
296.5151217790382
297.56669451157285
296.973110960192
297.3058002323668
297.64559795235874
297.62839490347596
298.1919041078306
297.6927776613179
297.59325173607766
296.37053855697894
296.7100964028052
296.36392693645786
297.1121437474716
296.9416263498058
296.0327344790416
297.0098351866343
295.0976914871769
295.5450785834298
296.4627225003506
296.30001129481275
295.3095671094338
295.49896863374886
297.4684388510373
295.6068783772087
295.5950037866072
294.97783573916035
297.9942872733615
298.21426931764415
297.50849976636164
296.66639275446676
295.5315079575774
295.5950504792595
294.95892819121616
295.1319289476313
295.1681215344013
294.69996512739544
294.5227776158238
297.4327906749973
297.8174768715575
298.1834471437746
298.1447620057796
298.5515023800509
298.4533552590595
298.17378808752693
298.2471634095485
298.2604462143506
298.57525740432925
295.63722687760486
298.72231879076656
299.2460191645457
298.68285202106114
298.3439777380844
297.82540690148903
296.7828333957689
296.5641847319014
297.4315580383612
295.93203196034216
295.7201357716238
297.5981688608639
297.94475539739193
298.44545256062077
298.57223025235965
298.4883889292361
297.96863952408455
299.0085677485399
299.3424592582288
298.3446307103263
298.9533507309346
298.1578589172748
298.283015127308
298.93311140743305
298.380745182974
298.863067821087
299.0383350867739
299.0235285320413
297.86924271724064
296.53396708623075
297.80931598700244
295.5226549914422
294.86017477804523
294.18996793836897
295.6941206539347
299.1998315217982
297.9090764193747
297.84736377733316
298.2267590861827
298.48011764769444
298.88892491440197
297.78636000749646
298.59413084814764
295.5049587335339
295.2754224203889
295.0782866639195
295.25864402069493
295.9682112786496
295.82000532191785
295.8820092624102
295.1863450129669
294.94325384219513
295.12183197747527
295.2782109290763
295.26239774460885
295.11992461621935
296.11005254726683
295.40490504566344
295.5524390547472
297.1448661992623
296.15949071426655
296.40172040839263
296.30277809151926
296.5782660399768
296.35412504308545
297.57062563547515
297.3387855438711
298.5867321223943
297.9285976118478
295.624919851011
296.8551647569749
295.2722974029165
295.66419169072634
295.728979978533
295.71191660757677
295.94401897176255
297.42530610070565
296.02433791026186
297.0028456369568
296.7589338368042
298.1512427025029
298.9500069005689
299.05108062282255
298.5359371136938
298.79681089769775
297.1007505497212
296.99497635227374
298.10908729274405
296.5151201293541
296.66878703633444
296.8585726814978
297.0295817302673
296.86977001521666
296.4156902999497
297.350168256575
296.8076241119973
297.1004558440653
298.5580026917793
297.98425567997566
297.23567937372616
297.3913649044153
298.56887712711637
296.9946333707412
296.9665344452242
297.9672226907894
296.98872487328043
296.78620332350266
295.80305780951943
295.8470464895972
296.93018556301774
295.1960244995066
295.758301319072
296.0871029376473
294.53434190485666
295.715569303143
295.0523663013518
296.9597567191281
296.5071471428636
297.0706159489364
297.3383578651862
297.9023103047437
296.30709543119355
295.7903834970028
294.96177584272056
298.68124533058756
297.9182832254659
298.0980883157245
299.36006503979917
298.1926197919138
297.0460605394937
295.5658819828381
297.26976441584776
297.05552595211793
295.32700292050185
294.81246480789025
297.122555612638
294.4792621845104
297.03980179268507
297.6757716129567
297.03382859757704
295.66215407034076
295.483874263942
295.50252215476837
295.1665584988295
296.4572427039061
296.33868657400575
295.22047902039327
295.6675236163029
295.37546820638687
294.8455059277585
295.3533045812383
297.1784327503688
298.18717266355554
295.36351853953215
296.2945221051771
295.7247848547307
295.28327287165735
295.34766673454163
295.77221936501644
295.79295335833694
298.6184899924362
298.1279706767987
295.6785033943561
295.48638846704506
295.3122479508712
294.4542932968166
297.02191547135726
297.2198115383746
296.455743534816
295.28832941605975
295.6285132045241
295.3121061972128
295.9402775294989
295.84623157104306
297.16125791938396
296.45884779225554
295.3246654124232
295.24030198233424
297.9778982485231
297.6335945888937
297.5801162517488
297.7984013927544
298.07299691591305
298.29603392870337
298.86983710793623
298.5586388698914
298.7632748047893
298.97314061838233
299.068673433337
298.5818357830315
297.08681506381834
297.35844324332874
297.47578040658254
298.13765548331776
298.53647988683923
296.1092499954892
295.34249383061604
298.13658561331613
298.0545716785019
298.82004987943026
295.5616757119754
296.8986051940533
296.89534824730276
295.48739524120344
298.4871373110153
298.0579698840635
297.4036060148331
295.6081064584545
295.62273841918255
295.23403455001335
295.7029846036931
298.913042906061
299.2534948512978
297.9735317876131
296.97089703480964
294.96448949950985
295.66303979441864
295.71058617173827
295.4764059461353
295.5954876183102
295.9433532768028
295.92812991468173
296.091595834429
295.21259027573126
295.2588440083879
295.25817798404097
297.0586822408452
295.84330672358396
298.9934824844169
299.63238246189354
299.5433230882515
299.3446648451507
299.46863564849144
299.50086812280324
299.20336195202526
299.94853216474763
298.0528292499724
299.9316499456518
299.88481943601187
299.72362491753853
300.17301117221757
298.6270203017024
299.10210591785614
298.06705411525934
297.25377378426805
298.975308515751
299.4926518803311
299.7795556882785
299.0577832701861
299.7744761193546
300.3949725429896
299.7039985057247
300.3785259822611
299.68093125738613
299.8391284876023
299.85909386355877
299.33130764626003
299.2681541175261
299.7611748064425
299.88965861106783
298.7220053682777
296.83896965350203
297.33752221417444
295.5136541115891
295.8397180032061
300.38767510122693
300.07995434189974
298.9646491582613
299.6526777610882
299.86092169492605
298.01595822608806
299.1126842638322
299.45677092957396
295.28217816916
294.89426446064084
296.388947782927
296.7496241417372
296.38321595755764
295.20759357621364
295.9592082984235
296.98981208947595
296.3295773438191
296.2541389346405
295.43315525507296
296.4348114031548
296.14250484881916
295.29423435032896
297.36932944864117
295.3328544980301
295.2913198919579
295.70983645133936
297.04764245924224
299.03190899858606
298.0775930447711
297.5397701034599
297.3184129787225
297.4502250667371
297.54631591403626
295.76803640615736
297.83701647527556
299.42534813400323
298.09841850153174
296.00325034822555
296.03961366783403
296.66626345402426
296.732882610595
295.3146480068559
296.90713549347856
295.68644045296685
295.08283299555256
297.76984727067054
296.7813603304342
298.08414843171334
299.54008731086066
297.854922608097
297.33769085586044
297.4718347056943
299.30376733487185
299.72314573085606
298.5823817427331
297.74717705558766
297.82712095797524
297.7619727196043
297.99354075430693
298.9352217949138
299.55606057908454
299.86233718874104
299.16534139499174
299.735626170404
298.20362439608243
298.8561454774193
298.2483791862367
299.08999909160326
297.8948818625202
297.1114890960886
296.9982992079898
296.8478223834971
296.1535276534661
296.1899450939165
296.7200746215437
297.7856255451264
297.8123575475305
298.1650702922468
298.86737544469656
296.7533812257255
297.9361463921318
294.93001502426984
297.92622548703247
299.12956428790875
297.8469798947405
296.9794591697038
295.53099508815774
298.22168378143715
298.3906802315888
295.25268776187966
294.7927945544842
294.8271692590572
297.12755929037104
298.0429525947796
297.6381633466919
299.3690586817474
296.7300159279128
296.7539464821607
295.60365843428247
295.65389486218976
295.827223288959
295.58316750243245
296.01528760226563
295.95451253965604
296.75485469204085
295.54212722849456
294.40925504700857
294.5985349274622
294.53926834460526
294.9394102527447
295.1514556130845
295.07762729676983
294.96179738625483
294.6168596001315
295.2962015386183
295.1597071900703
295.0148989791802
294.91833066411084
294.5516695011328
294.45960339990717
294.95926596065544
294.91490875541234
295.3241122496145
295.2334664464488
296.55690475895597
297.87267720187134
296.7241670899171
295.8121267617687
296.5904075595213
297.23438498309105
297.6554731170331
296.0677585653099
296.0442751427231
299.05501071277723
295.6363042266387
297.4309813125648
296.81729111756226
298.6007770386241
296.1685499935097
295.60787737618864
295.47289358756234
294.9733544021298
297.2903400541048
295.6821243029766
297.151067065197
296.9536571956684
295.5977216177881
295.2801473332999
299.20065465596963
298.7950688477018
299.09938451637714
299.86555767211973
299.57809493140616
300.3042954142485
299.9115165295332
299.7733795262743
298.11102811735145
298.75582841589727
299.5746056060396
299.2286563438798
294.8827650783691
295.4280829627568
296.10618584181515
296.75433809299557
298.7844135873042
298.17197400615447
297.40085002709674
298.5838005460073
299.5120212190739
295.7375278057791
295.7172738689336
295.3624081401067
296.79693613586716
298.7719154936083
297.83381207534
295.7736495895125
295.3322857384742
297.34092540455794
296.70992979937506
299.26508585358766
297.82134378174266
295.1836812184192
295.956847007351
294.5301739816168
296.9717259245375
296.3369464260974
295.5706364207563
295.5275929305597
295.1715217860926
295.1211992482217
295.8128026639416
295.24007638554275
296.94571214086676
296.9487608602395
295.9901056053034
296.0020001829394
294.6321843880284
294.54231414262136
295.7708580160083
295.4907318105215
297.2569562965763
297.124753027289
295.2317485830108
295.3627048556947
297.95197032672206
297.2050784095878
300.2475443259122
300.2871684211727
300.46775736935916
300.7117594333155
300.55881237325343