# vtk DataFile Version 3.0
d:\study\Notebook\Juno\MPC\Open\examples\stress_concentration\2D_MetaFEM.vtk
ASCII
DATASET UNSTRUCTURED_GRID
POINTS 1399 float
4.0 0.0 0.0
0.0 0.0 0.0
4.741180896759033 0.9659258127212524 0.0
4.5 0.8660253882408142 0.0
4.133974552154541 0.5 0.0
4.034074306488037 0.258819043636322 0.0
5.0 1.0 0.0
5.0 5.0 0.0
0.0 5.0 0.0
3.75 0.0 0.0
3.5 0.0 0.0
3.25 0.0 0.0
3.0 0.0 0.0
2.75 0.0 0.0
2.5 0.0 0.0
2.25 0.0 0.0
2.0 0.0 0.0
1.75 0.0 0.0
1.5 0.0 0.0
1.25 0.0 0.0
1.0 0.0 0.0
0.75 0.0 0.0
0.5 0.0 0.0
0.25 0.0 0.0
4.292893409729004 0.7071067690849304 0.0
5.0 4.75 0.0
5.0 4.5 0.0
5.0 4.25 0.0
5.0 4.0 0.0
5.0 3.75 0.0
5.0 3.5 0.0
5.0 3.25 0.0
5.0 3.0 0.0
5.0 2.75 0.0
5.0 2.5 0.0
5.0 2.25 0.0
5.0 2.0 0.0
5.0 1.75 0.0
5.0 1.5 0.0
5.0 1.25 0.0
0.25 5.0 0.0
0.5 5.0 0.0
0.75 5.0 0.0
1.0 5.0 0.0
1.25 5.0 0.0
1.5 5.0 0.0
1.75 5.0 0.0
2.0 5.0 0.0
2.25 5.0 0.0
2.5 5.0 0.0
2.75 5.0 0.0
3.0 5.0 0.0
3.25 5.0 0.0
3.5 5.0 0.0
3.75 5.0 0.0
4.0 5.0 0.0
4.25 5.0 0.0
4.5 5.0 0.0
4.75 5.0 0.0
0.0 0.25 0.0
0.0 0.5 0.0
0.0 0.75 0.0
0.0 1.0 0.0
0.0 1.25 0.0
0.0 1.5 0.0
0.0 1.75 0.0
0.0 2.0 0.0
0.0 2.25 0.0
0.0 2.5 0.0
0.0 2.75 0.0
0.0 3.0 0.0
0.0 3.25 0.0
0.0 3.5 0.0
0.0 3.75 0.0
0.0 4.0 0.0
0.0 4.25 0.0
0.0 4.5 0.0
0.0 4.75 0.0
2.72491192817688 0.23945878446102142 0.0
2.2267229557037354 0.22637507319450378 0.0
0.24682191014289856 0.24594929814338684 0.0
3.4935483932495117 0.2691214382648468 0.0
3.2336056232452393 0.2627057433128357 0.0
2.978372097015381 0.2505870461463928 0.0
3.978391647338867 0.8266578316688538 0.0
2.4750473499298096 0.2309265285730362 0.0
1.9801349639892578 0.22276054322719574 0.0
1.7325941324234009 0.22210121154785156 0.0
1.4847468137741089 0.22385618090629578 0.0
1.2375473976135254 0.22744454443454742 0.0
0.9910998344421387 0.23252931237220764 0.0
0.7437729835510254 0.23803076148033142 0.0
0.4955412745475769 0.24262182414531708 0.0
4.172366142272949 0.9386060833930969 0.0
4.771111011505127 3.0202627182006836 0.0
4.771735191345215 2.7699978351593018 0.0
4.772224426269531 2.5205347537994385 0.0
4.772514820098877 2.2725670337677 0.0
4.769946098327637 2.027254819869995 0.0
4.754820346832275 1.7807685136795044 0.0
4.677403926849365 1.5017505884170532 0.0
2.517192840576172 4.772576332092285 0.0
2.7681148052215576 4.772757053375244 0.0
3.0183801651000977 4.772337913513184 0.0
3.2679381370544434 4.771462917327881 0.0
3.516854763031006 4.770322799682617 0.0
3.765188455581665 4.768695831298828 0.0
4.013518333435059 4.7665510177612305 0.0
4.261553764343262 4.763845443725586 0.0
4.509236812591553 4.7604451179504395 0.0
4.755906105041504 4.756180763244629 0.0
0.22549127042293549 2.4945154190063477 0.0
0.22443976998329163 2.7428176403045654 0.0
0.22580678761005402 2.993645429611206 0.0
0.2284928262233734 3.2455317974090576 0.0
0.23200736939907074 3.4981281757354736 0.0
0.23561379313468933 3.750917911529541 0.0
0.2391924262046814 4.002213478088379 0.0
0.242101788520813 4.253035545349121 0.0
0.2447262704372406 4.502979755401611 0.0
0.24716804921627045 4.752170562744141 0.0
0.22674761712551117 2.2433667182922363 0.0
4.769984722137451 3.270582914352417 0.0
2.267184257507324 4.771055698394775 0.0
4.519621849060059 1.6547877788543701 0.0
4.702180862426758 1.212132453918457 0.0
3.7629759311676025 0.2719908356666565 0.0
3.2097055912017822 0.5222971439361572 0.0
2.4463517665863037 0.45714592933654785 0.0
1.2336843013763428 0.45840054750442505 0.0
0.24653378129005432 0.49455347657203674 0.0
4.271975040435791 4.5261101722717285 0.0
3.7806437015533447 4.536407470703125 0.0
3.5343050956726074 4.540111541748047 0.0
3.2861456871032715 4.543235778808594 0.0
4.7666850090026855 3.7689077854156494 0.0
4.768642902374268 3.520200490951538 0.0
2.53696346282959 4.550645351409912 0.0
0.4885616600513458 4.249301910400391 0.0
0.47320547699928284 3.7421486377716064 0.0
0.4634963572025299 3.4849932193756104 0.0
0.4539734423160553 3.229353666305542 0.0
0.44696810841560364 2.97617244720459 0.0
1.756960153579712 4.759432315826416 0.0
2.0130653381347656 4.765909671783447 0.0
4.540919303894043 2.791414260864258 0.0
0.24761448800563812 0.7443252205848694 0.0
1.4777486324310303 0.4474426805973053 0.0
1.7223042249679565 0.4406816065311432 0.0
2.2043771743774414 0.44723865389823914 0.0
0.23654183745384216 1.7413675785064697 0.0
0.2304106503725052 1.9929972887039185 0.0
2.9470839500427246 0.49404022097587585 0.0
2.693081855773926 0.4711846113204956 0.0
1.9647912979125977 0.4407423138618469 0.0
0.24167223274707794 1.4901057481765747 0.0
0.24582445621490479 1.2416770458221436 0.0
0.24795281887054443 0.9936811923980713 0.0
0.9907128214836121 0.4707643389701843 0.0
0.7446019649505615 0.48172226548194885 0.0
4.541231155395508 2.542062997817993 0.0
4.543169975280762 2.2948455810546875 0.0
4.545644760131836 2.0550758838653564 0.0
4.543173313140869 1.831566333770752 0.0
0.4442830979824066 2.480585813522339 0.0
2.786128282546997 4.548751354217529 0.0
3.0364153385162354 4.545902252197266 0.0
4.764900207519531 4.01677942276001 0.0
4.026791095733643 4.531923294067383 0.0
4.762640953063965 4.263887882232666 0.0
4.759823799133301 4.51040506362915 0.0
0.44336846470832825 2.725762128829956 0.0
1.5012990236282349 4.75341796875 0.0
1.2485582828521729 4.749840259552002 0.0
0.9977874159812927 4.749121189117432 0.0
0.483079731464386 3.9957027435302734 0.0
0.7466403841972351 4.750418663024902 0.0
0.49622246623039246 4.751748561859131 0.0
3.772860527038574 0.5159498453140259 0.0
4.402629375457764 1.1290714740753174 0.0
0.49570780992507935 0.4893004894256592 0.0
4.516707897186279 4.519093990325928 0.0
0.4933589994907379 4.501126766204834 0.0
4.5398478507995605 3.2914655208587646 0.0
0.4535967707633972 1.9873241186141968 0.0
2.0334179401397705 4.5402936935424805 0.0
4.532843589782715 3.786543607711792 0.0
0.48204028606414795 1.4850553274154663 0.0
0.49891743063926697 0.7388181686401367 0.0
4.522892951965332 4.276223182678223 0.0
0.7451730966567993 4.496258735656738 0.0
1.5122872591018677 4.506856918334961 0.0
4.537036895751953 3.5398168563842773 0.0
1.7742503881454468 4.52497673034668 0.0
0.46448034048080444 1.7353812456130981 0.0
0.5014314651489258 0.9897371530532837 0.0
0.4964554011821747 1.238219976425171 0.0
4.52836799621582 4.032074928283691 0.0
1.2557907104492188 4.493190288543701 0.0
1.0009377002716064 4.490744113922119 0.0
2.799311876296997 4.324661731719971 0.0
2.552760124206543 4.33172082901001 0.0
4.03925085067749 4.295638561248779 0.0
3.051196813583374 4.3196024894714355 0.0
0.7337964773178101 3.9786899089813232 0.0
3.795848846435547 4.303140163421631 0.0
3.5507864952087402 4.309774875640869 0.0
0.7153406739234924 3.7174317836761475 0.0
0.6921664476394653 3.455672025680542 0.0
3.302506446838379 4.31516695022583 0.0
0.6730740666389465 3.1986284255981445 0.0
0.6613003611564636 2.9470980167388916 0.0
0.6574719548225403 2.700845956802368 0.0
0.6591035723686218 2.4580111503601074 0.0
1.000664472579956 0.7161283493041992 0.0
1.2428570985794067 0.6923543214797974 0.0
1.4814635515213013 0.6678524017333984 0.0
1.7188379764556885 0.6541942358016968 0.0
1.9506241083145142 0.6586734056472778 0.0
2.180676221847534 0.6694180369377136 0.0
4.325667858123779 1.8420579433441162 0.0
4.317087650299072 2.0694632530212402 0.0
2.415020227432251 0.6812596917152405 0.0
4.310755252838135 2.3120336532592773 0.0
4.306038856506348 2.5635018348693848 0.0
2.6546483039855957 0.6965292692184448 0.0
2.89924955368042 0.7242036461830139 0.0
4.346697807312012 1.625451922416687 0.0
2.289579391479492 4.549698352813721 0.0
0.4455805718898773 2.232836961746216 0.0
4.540674686431885 3.0420238971710205 0.0
4.0563788414001465 1.143951416015625 0.0
3.733602523803711 0.7788360118865967 0.0
3.4818572998046875 0.5230259299278259 0.0
4.104098320007324 1.8350403308868408 0.0
3.0126686096191406 0.9663097858428955 0.0
2.8367350101470947 0.9362661838531494 0.0
4.309007167816162 3.066852569580078 0.0
2.382382869720459 0.9102762341499329 0.0
2.61680269241333 0.920992910861969 0.0
4.3087358474731445 3.314958095550537 0.0
1.930808186531067 0.8829144835472107 0.0
1.719199776649475 0.8581428527832031 0.0
0.6658679246902466 1.9826945066452026 0.0
2.15277361869812 0.9013311266899109 0.0
1.4993888139724731 0.883549153804779 0.0
0.6805839538574219 1.7386291027069092 0.0
2.0614380836486816 4.325821399688721 0.0
1.8051519393920898 4.297520160675049 0.0
0.8852910995483398 3.1539390087127686 0.0
0.8656416535377502 2.670430898666382 0.0
0.8690656423568726 2.9085559844970703 0.0
0.9158580303192139 3.4072554111480713 0.0
1.0233339071273804 0.9775682091712952 0.0
3.5647895336151123 4.078916072845459 0.0
1.0027670860290527 3.9452810287475586 0.0
0.9619662165641785 3.6724088191986084 0.0
3.808835506439209 4.068365573883057 0.0
4.050642013549805 4.05755615234375 0.0
1.0081723928451538 4.222354412078857 0.0
1.278157353401184 4.217512130737305 0.0
1.54360032081604 4.253854274749756 0.0
0.7185279726982117 1.4945061206817627 0.0
0.7619271278381348 0.9887645244598389 0.0
0.7592820525169373 1.24665367603302 0.0
4.290266036987305 4.045576095581055 0.0
4.298098087310791 3.802980899810791 0.0
4.304627895355225 3.559666633605957 0.0
2.8046677112579346 4.0981645584106445 0.0
3.316899299621582 4.087882995605469 0.0
3.173736810684204 0.8081792593002319 0.0
3.0625927448272705 4.094151496887207 0.0
0.7452992796897888 4.235592842102051 0.0
4.281918048858643 4.286677360534668 0.0
4.079725742340088 2.3224751949310303 0.0
2.3130290508270264 4.3374528884887695 0.0
4.088364601135254 2.072606325149536 0.0
4.0702009201049805 2.5822343826293945 0.0
0.6609803438186646 2.2187294960021973 0.0
0.7523835897445679 0.7319404482841492 0.0
4.304960250854492 2.816049575805664 0.0
4.209043502807617 1.2255632877349854 0.0
3.8840746879577637 1.0687150955200195 0.0
4.134098052978516 1.612314224243164 0.0
3.4654388427734375 0.7808195948600769 0.0
3.8693602085113525 1.8209190368652344 0.0
4.078785419464111 3.098513126373291 0.0
2.8165557384490967 1.160479187965393 0.0
3.0416815280914307 1.1485552787780762 0.0
2.356816291809082 1.1435375213623047 0.0
[...]
POINT_DATA 1399
SCALARS d2 float 1
LOOKUP_TABLE default
4.570942061390185e-14
1.1718316197860369e-14
1.430220032386328e-11
1.2476953473954436e-11
6.989946410296471e-12
3.639139032580228e-12
1.5635615517859853e-11
2.73194233200825e-11
2.1801874095301134e-11
2.6427028817269717e-14
1.9801944931747475e-14
1.6854459815752635e-14
1.5240022023004878e-14
1.423750935569073e-14
1.356277950522943e-14
1.3079627743817563e-14
1.2719804541451361e-14
1.2444038882325023e-14
1.222957579794555e-14
1.2062381524107821e-14
1.1933635009336568e-14
1.1837748787263796e-14
1.1771198376887318e-14
1.1731816641864355e-14
1.0024728077673368e-11
2.623444015618597e-11
2.514648683162698e-11
2.406375074344566e-11
2.2996472005321308e-11
2.1954294280938582e-11
2.0946445856236946e-11
1.998227627310468e-11
1.9071953893300934e-11
1.8227292308320573e-11
1.7462747462288832e-11
1.6796511633486958e-11
1.625180162707184e-11
1.5857067475578637e-11
1.564226511791256e-11
1.5602176802575756e-11
2.1820449348487912e-11
2.187546305334342e-11
2.1967060220933303e-11
2.2095392732927914e-11
2.226052983433991e-11
2.24623211720307e-11
2.2700228917316544e-11
2.29731299325646e-11
2.3279098845923445e-11
2.361520188011102e-11
2.3977312777283944e-11
2.4360014992187715e-11
2.475660976056798e-11
2.5159306820579498e-11
2.5559657293726784e-11
2.5949301093772944e-11
2.632112580538369e-11
2.6670969869270464e-11
2.7000295919617276e-11
9.87734220126148e-13
1.968137368561002e-12
2.9569656339164698e-12
3.957611685305808e-12
4.972619838225958e-12
6.003583874114484e-12
7.051163094495055e-12
8.115182615151543e-12
9.194809151173034e-12
1.028877040987766e-11
1.1395575120541637e-11
1.251373624215922e-11
1.3641951435865478e-11
1.4779258664825684e-11
1.5925145042702862e-11
1.7079617760291207e-11
1.8243229710760773e-11
1.9417062974235793e-11
2.0602655138300695e-11
1.0974731973714139e-12
9.697732409642935e-13
9.727134826621072e-13
1.6900633845795864e-12
1.4054271005274667e-12
1.2193493293489878e-12
7.375666737047495e-12
1.0173072633758157e-12
9.348550828538367e-13
9.173458643393742e-13
9.130137715787605e-13
9.1841158021623e-13
9.315693034476062e-13
9.478702921297342e-13
9.620311075201578e-13
9.515462562626785e-12
1.8898811844602767e-11
1.8027156013793548e-11
1.7220356439968933e-11
1.6491063450865584e-11
1.5846952015970196e-11
1.525560289309847e-11
1.4423996264317131e-11
2.2581390394762256e-11
2.295641065030148e-11
2.3348945151404122e-11
2.3752363741412888e-11
2.4159307841843182e-11
2.4559908815156446e-11
2.4946104955041618e-11
2.530960622551206e-11
2.5645167104263187e-11
2.5952272203086713e-11
1.0275590642099044e-11
1.1375598796979805e-11
1.249831534035419e-11
1.3635997151181862e-11
1.478612783049249e-11
1.5945769706645057e-11
1.7107099244835553e-11
1.8275199569115294e-11
1.9449270281214993e-11
2.0631373742411785e-11
9.175776595529204e-12
1.9822636573769055e-11
2.2228382551259753e-11
1.4047473245726332e-11
1.4166020635193018e-11
2.274043919808359e-12
2.767593000037894e-12
2.0060538792197897e-12
1.8436238389979227e-12
1.948401139585001e-12
2.429175507939211e-11
2.355779528383919e-11
2.316002331297797e-11
2.2752960249716523e-11
2.1783651394313452e-11
2.078738567720884e-11
2.1583072978985168e-11
1.831180488406654e-11
1.595466546845547e-11
1.4771729038183033e-11
1.3604257471009109e-11
1.2457538953674379e-11
2.1567372673156563e-11
2.188451764251732e-11
1.7706384277081222e-11
2.937140498261317e-12
1.8177261469733243e-12
1.8132170282184028e-12
1.9089919447377785e-12
7.022390066208396e-12
8.09388275072299e-12
2.3897366306401237e-12
2.1499851233696826e-12
1.8428936520912856e-12
5.968935518014555e-12
4.943787633282478e-12
3.9360928295521596e-12
1.8785842447453346e-12
1.9108109802653505e-12
1.683385857910868e-11
1.6018945892431584e-11
1.5280495150804958e-11
1.462525829717722e-11
1.0245283917336773e-11
2.1955401699419797e-11
2.2346955240524075e-11
2.2805245354948485e-11
2.393892336988865e-11
2.3844745725132204e-11
2.489623517608097e-11
1.1333883955092359e-11
2.129047949612994e-11
2.1066015670259117e-11
2.0894624356242894e-11
1.7129395484014075e-11
2.077044761367129e-11
2.068435652872173e-11
4.12041106861972e-12
1.2017417574820657e-11
1.9326163504255875e-12
2.4612359035587376e-11
1.94955164264158e-11
1.9575798395577585e-11
8.094167711469599e-12
2.0852897145012383e-11
2.154565224379408e-11
5.966740550152945e-12
2.9232493342393543e-12
2.3581057095089898e-11
1.9566057986526523e-11
2.0138364885175758e-11
2.0551222125857175e-11
2.048382342394098e-11
7.018551156578071e-12
3.931965937077357e-12
4.945252737663688e-12
2.2557683614258026e-11
1.9859376320233124e-11
1.9674346355955007e-11
2.0948604304710472e-11
2.059570744968554e-11
2.2929735684861345e-11
2.1342281234451387e-11
1.714149721551057e-11
2.255563022597943e-11
2.2161836553920228e-11
1.592504201418701e-11
1.4712444260978206e-11
2.175357767794373e-11
1.353140710401987e-11
1.2386760563902141e-11
1.1277767286978574e-11
1.0195729235882892e-11
2.864607896746829e-12
2.791945235807152e-12
2.7205640970871584e-12
2.6995299072913817e-12
2.7626015286886605e-12
2.8665354748454172e-12
1.3792536154504028e-11
1.4564477376539354e-11
2.998501091083077e-12
1.542396466804794e-11
1.634536556724565e-11
3.1835936946148206e-12
3.4924863190762806e-12
1.3147775728227932e-11
2.1227485414173187e-11
9.157510262563148e-12
1.862526565143308e-11
9.568170138895318e-12
5.647465536679242e-12
3.217383294553424e-12
1.2850049105882804e-11
4.860705783719454e-12
4.495422616483394e-12
1.8287484393762804e-11
4.0297058050554026e-12
4.227958516471818e-12
1.9272849804299516e-11
3.723657422672865e-12
3.5602830239635197e-12
8.112854766264568e-12
3.882544959863374e-12
3.6205470015272757e-12
7.066059098478369e-12
1.9887626975384322e-11
1.9453909020588673e-11
1.3417287670968337e-11
1.1215794106830728e-11
1.2293215707003695e-11
1.4592536480179808e-11
3.932905208127093e-12
2.1160754684887055e-11
1.7126316353534088e-11
1.583878937448365e-11
2.1549462770134882e-11
2.192042227983542e-11
1.8420097116868223e-11
1.8584632021319896e-11
1.8982622027667224e-11
6.037664790408746e-12
3.9487139940544365e-12
5.008317773461896e-12
2.2259669571494295e-11
2.125282984724693e-11
2.025815392333731e-11
1.9917814520578014e-11
2.0756047296402376e-11
4.256827106351574e-12
2.033608482114728e-11
1.834291789556659e-11
2.3274363864426933e-11
1.4764213070630346e-11
2.027434603496181e-11
1.3768937664717036e-11
1.5798869538130102e-11
9.14064621905431e-12
2.9093641566246678e-12
1.730349083630795e-11
1.0931833362502869e-11
8.136079573081439e-12
1.206392244727823e-11
4.708218173499574e-12
1.1851072556884085e-11
1.7936530539993267e-11
5.6089928780850314e-12
5.868326209687928e-12
5.102270583448542e-12
5.928338502068979e-12
4.790228047319797e-12
5.2060310520484825e-12
1.8940174129996973e-11
4.976457869306758e-12
4.51329358564284e-12
4.812793932221226e-12
9.10759865627104e-12
1.9920750895076044e-11
1.9377411432002597e-11
1.4396809651087156e-11
8.133253138994376e-12
2.091539549127195e-11
1.3251610180100398e-11
7.184310564509759e-12
2.0148276687112558e-11
1.5637616335578764e-11
1.89897975578863e-11
1.8488540435176427e-11
1.7081009660103378e-11
1.7872032394361015e-11
6.274308500848452e-12
2.0540139969552016e-11
1.8903102234185845e-11
1.2185829913278096e-11
1.9762491170298977e-11
1.9361135147563555e-11
1.2966693013629926e-11
1.9575347933548783e-11
1.409913246288606e-11
1.014462111105391e-11
1.685903857628898e-11
1.278157368921838e-11
1.2246409425984869e-11
1.63973037371829e-11
6.827150177209139e-12
6.4024767737817675e-12
7.1633147286352625e-12
1.763730512262334e-11
6.1489782864659755e-12
6.217410362654052e-12
5.7541925193034935e-12
6.2701037706846624e-12
1.857503471663156e-11
5.345995466366453e-12
1.8633432907161593e-11
1.0148563520623486e-11
1.9537367660092458e-11
1.410024242383024e-11
1.5176063912129504e-11
1.814232883408416e-11
1.3032061527392718e-11
7.342443912569943e-12
1.759441330450542e-11
8.041593563711038e-12
1.6940662226620426e-11
9.032068051442516e-12
1.8768126470895564e-11
1.8428142094464628e-11
1.7997856728441413e-11
1.3476243335003415e-11
1.1168451089526937e-11
1.834908045606787e-11
1.5222676577335252e-11
6.205995520619327e-12
6.8953437012525684e-12
1.084828132655735e-11
7.399498043684936e-12
8.267925368444483e-12
1.5536055938385206e-11
6.935248089544732e-12
1.6710299876819015e-11
1.1679852017738162e-11
7.334261420493761e-12
7.148169029261209e-12
1.7411714654009487e-11
6.722703027988464e-12
6.253670821220618e-12
1.4676986582074744e-11
1.1140184522626957e-11
1.3767277261314705e-11
1.745243767275758e-11
1.5481902925186426e-11
1.5589756648171732e-11
1.6195789620924185e-11
1.615532390048786e-11
6.834262325726366e-12
7.614229487466749e-12
9.534441779350102e-12
1.7773949994297158e-11
8.38206071221514e-12
1.750758961345327e-11
1.2040060371001827e-11
1.7347127325239687e-11
1.460230001106795e-11
7.433504210488476e-12
1.800083162208393e-11
1.0939626144086029e-11
1.9112846568936894e-11
8.047814684627361e-12
1.4937061555378038e-11
8.910944359425874e-12
1.507733893647962e-11
1.409283774173291e-11
1.6097434779315218e-11
7.1411236551095074e-12
7.740012556924897e-12
1.4218807415159953e-11
1.6661191302903116e-11
1.184527132506218e-11
1.611653143518847e-11
1.0993426279674915e-11
1.6783186311559397e-11
8.9445623075284e-12
1.2788738068157689e-11
1.73067664220847e-11
1.2950120213485858e-11
8.543837504556145e-12
1.0318326356636e-11
9.457859753799653e-12
7.7045619648013e-12
8.978869362225483e-12
1.5130671489536198e-11
9.958113465581748e-12
9.306306819270897e-12
1.4788477832606725e-11
1.5789726924589054e-11
1.3733747877254261e-11
8.080889764027443e-12
9.067423085571743e-12
1.5328814116344905e-11
1.2605547182529723e-11
1.5611813579156055e-11
1.5401502083648556e-11
1.1702659834364779e-11
1.0518559647446914e-11
1.6576912786104513e-11
1.6876127148523993e-11
9.794918801047374e-12
1.2570841167042626e-11
1.1300220724428987e-11
8.906751980170184e-12
1.4549193901915538e-11
1.012374401064287e-11
9.991536612061403e-12
1.3487281619331181e-11
1.2341600598761044e-11
1.3086761164887044e-11
1.4385025390040376e-11
1.426766724271782e-11
1.2553367735614132e-11
1.4371621927778727e-11
1.18958106638008e-11
9.940138083311278e-12
1.1116630863173854e-11
1.4560068315946133e-11
1.0956448069562708e-11
1.012467556923759e-11
1.3329925321123427e-11
1.125250082817846e-11
1.2237816068222478e-11
1.2472402779232068e-11
1.3347611694703019e-11
1.1095317556259779e-11
1.349042975695027e-11
1.1149162846508517e-11
1.1518295816388814e-11
1.2235395885857298e-11
1.2332524719860611e-11
7.857147055476858e-12
1.147087334226766e-11
8.886179859412848e-12
3.7837596995427834e-12
5.3215108341348945e-12
4.279081352487608e-12
1.6835846715565394e-11
8.104765869957128e-12
5.781020819817011e-12
1.3455445110657454e-11
1.5949114701580293e-11
1.3275884836800323e-11
1.5609305082988308e-11
1.6431155246126483e-11
8.821475602162625e-12
1.381429863765128e-11
1.0289844324982627e-11
1.5079261026978335e-11
1.4420771509416879e-11
9.858067604678173e-12
1.0413506315619384e-11
4.919584105053401e-13
1.6566923964137464e-11
2.9569704141406618e-12
2.343165298501152e-11
2.929108203227748e-12
5.9847120392308575e-12
1.4839684048920982e-11
6.51801769563057e-12
9.018410213600967e-12
7.488005155045606e-12
2.3097256800553315e-11
1.2412908916371734e-11
1.4175133175332936e-11
2.346599779584257e-11
1.828862231622135e-11
1.6525342835085105e-11
1.4216281884700435e-11
6.153882266028967e-12
1.9220883077499416e-11
1.5621061282652532e-11
1.3654438430127937e-11
9.107520417513544e-12
1.277877265833941e-11
1.3931176586360236e-11
9.279560300461774e-12
3.5802237351761387e-12
1.875924018149022e-11
2.140161325576089e-11
9.148388729669669e-13
4.650169822151292e-13
6.5257206912497254e-12
1.1244274526816045e-11
2.0458291566417768e-11
1.1831078846401784e-11
4.975162344493238e-12
1.7652420784248917e-11
1.4461187582100802e-11
7.123626501402e-12
3.952120138914365e-12
2.2956355337946565e-11
1.034999748984019e-11
1.6385254472544536e-11
1.6414564138676283e-11
6.206223852713563e-12
1.5850638368689788e-11
2.073513887289877e-12
1.550099691464393e-11
8.960006783912505e-12
2.229132367304246e-11
1.0753833185163396e-11
1.3331562801302478e-11
2.375051959038635e-11
1.4930897002342215e-11
2.0677490168785388e-11
2.095801406659254e-11
1.4950198722909283e-11
1.4186907912168997e-11
4.624150396423533e-13
1.6627626717846268e-11
2.7091681980991285e-12
1.2125795187253903e-11
1.536214714322766e-11
1.838604458953778e-11
1.3604413542351972e-11
1.4014848402772722e-11
1.5359918290617355e-11
5.267756383361057e-12
1.4120867865481274e-11
1.768995678364278e-11
1.8115540902503752e-11
8.706324570191506e-12
7.71356216842795e-12
1.6821657951584925e-11
1.9179842260391938e-11
1.8254847291689366e-11
2.1366970332421395e-11
8.08594193782982e-12
9.244286007792627e-12
1.6021513565193747e-11
1.5695285645943576e-11
2.108787346561333e-11
9.247905375611726e-13
4.994478878012568e-13
1.783393945505445e-11
1.3363346299470762e-11
2.3853822786564e-11
1.955969446627923e-11
9.869724024871527e-12
1.025320985641814e-11
2.082780718199142e-11
2.043342050983065e-11
9.800363084113034e-13
1.4245379690057335e-11
9.121816227449457e-12
1.1382656366971647e-11
1.627103680707325e-11
1.223694286436598e-11
5.153547193690808e-13
1.290794009998981e-11
1.3471363402905302e-11
1.9549869239272075e-12
2.1445515117095057e-11
2.176612793581162e-11
1.8455786772194496e-11
1.8488547775717157e-11
1.3139047044992258e-11
2.2413271600816807e-11
1.744160649940151e-11
2.544792557499957e-11
4.559381260063329e-12
1.8773163569285137e-11
1.752380755370311e-11
7.855078550557633e-12
9.2558794497902e-13
2.6777290389534385e-11
1.712841674659676e-11
1.7793017132105236e-11
5.559450083488367e-13
1.837620897653275e-11
1.7041720187742248e-11
2.4095161448924946e-11
1.546538421288301e-11
2.411836614889294e-11
5.2935452515587684e-12
2.946415290212898e-12
2.1356029192353736e-11
1.9430964709294055e-11
2.5130697689398782e-11
1.315552131337973e-11
1.921320074385565e-12
2.940038423834133e-12
1.9825856927733473e-11
2.0416583853236974e-11
1.2756193775730071e-11
1.2337308285693792e-11
1.3297819454093444e-11
2.16608435960578e-11
1.1198447437641965e-11
6.2172023377262565e-12
2.475503862866858e-11
1.1939359272339062e-11
1.7879613415872546e-11
6.7062904891338885e-12
5.18056732437123e-12
1.8732009299362143e-12
1.2343228599180538e-11
2.1671524006773093e-11
2.8277018027383325e-12
1.004932215910813e-11
1.7130727006156637e-11
1.9519681272060987e-11
3.847133517295356e-12
2.915623090410348e-12
1.8302171288481446e-12
2.275253829958409e-11
2.012409802026469e-11
2.3322704431086146e-11
1.153359956482223e-12
3.4258584475087647e-12
2.2132329880048413e-11
1.728007634652533e-11
4.715118609731128e-13
1.8735024239339568e-11
5.034926129488735e-12
1.580963821038507e-11
1.2110361869732999e-11
1.6223243379658444e-12
1.4263494844731535e-11
2.205224136083018e-11
1.0618272602350126e-11
2.2359768996657444e-11
1.1151954490857556e-11
1.421359605562989e-11
1.2398457084340471e-11
7.594511387529305e-12
1.0035789542162986e-11
2.1721348903700874e-11
7.2262717181781375e-12
1.1098474287093611e-11
1.6075286710422173e-11
1.8938840344904812e-11
1.4924040673682507e-11
4.796017840577859e-13
1.7000784738334933e-11
1.573019432994958e-11
3.80016615548834e-12
1.449136082376056e-11
1.0208621990396629e-11
2.3150441734734566e-11
9.028849480288536e-12
1.8953189938215233e-11
1.1796353795467166e-11
2.1737194445053765e-11
2.6476269628579284e-11
1.1189722824725602e-11
1.9429022087109946e-11
1.499886559924568e-11
1.7263881692645953e-11
1.973122644564719e-11
1.9993867545814213e-11
7.708021707413338e-12
1.89431864103679e-12
3.945925010931686e-12
1.842660423297799e-11
1.3609315995214881e-11
1.194010546237353e-11
1.477890550315347e-11
5.549792699787243e-12
7.380795128124827e-12
6.515233079715552e-12
2.0612514903949214e-11
3.918429186971294e-12
5.10425778158661e-12
4.542356219345597e-12
2.046135047007673e-11
6.980662443060495e-12
1.8595452678818794e-11
2.0344911641923616e-11
2.0862065917800158e-12
1.9954577832970268e-11
2.041068238070316e-11
5.456138371867297e-12
2.2051696474335543e-11
1.3402772541221791e-11
2.1806606478884395e-11
3.639828577892678e-12
1.5403246992569424e-11
1.6888069187264562e-11
1.6545113962545954e-11
1.5208060999936026e-11
1.4315456376790407e-11
1.601603137925456e-11
2.103581782674776e-11
1.5510369341355214e-11
1.3029728591821236e-11
2.4594691005027426e-12
6.678183469517682e-12
1.4928861205957325e-11
1.5317706484822563e-11
2.5059836033617122e-11
2.0768947522423574e-11
1.1935626214081963e-11
1.4597541715398632e-12
3.0853576917471895e-12
2.0653277103963497e-11
1.974304662855003e-11
1.5304113814122214e-11
1.4429590273917924e-11
1.4648979927217627e-11
2.276529674274649e-11
1.3536202887729953e-11
9.514867700215264e-13
8.463411034454063e-12
1.4209690474149269e-11
1.1446253676820476e-11
5.408405046027009e-12
1.1064524475645667e-11
2.2401246433422172e-11
2.8123614140066727e-12
2.0305982342223437e-11
4.890409742079769e-12
1.1383791348536171e-11
1.444602816291991e-11
1.0131566828994989e-11
1.466269021979659e-11
1.714088053143667e-11
2.335995318267449e-11
6.540736258244721e-12
4.064216676950759e-12
1.9665993143124453e-11
8.584915711425951e-12
6.045594431359009e-12
9.699765982287217e-12
1.7043494697594227e-11
4.122601641771804e-12
1.0702892609673934e-11
2.187479803564501e-11
1.6598179719700423e-11
1.6288218069420042e-11
2.4455524595829168e-11
2.08392583107662e-11
8.44550801067616e-12
1.970877294715585e-11
1.8209867587581788e-11
5.204864756256262e-12
8.504497432836038e-12
1.796859058579723e-11
2.5815651179493357e-11
2.1546515639164143e-11
5.6201069891931756e-12
8.624085350224178e-12
1.1771400424061568e-11
1.3463842445124557e-11
1.5969002946337094e-11
1.3018899660949203e-12
1.199580185439732e-11
2.3958696985515658e-11
8.57646291920729e-13
3.933041776778909e-12
3.4270121203734233e-12
2.4757530006929637e-11
7.549138162851541e-12
1.10051465833284e-11
5.454332696364236e-12
7.766593318797199e-12
9.06694939267764e-12
7.556106536921241e-12
2.354939320517087e-11
6.493563588466495e-12
1.886088215486145e-11
8.102421535064135e-12
1.8902344654415117e-11
4.735955330120986e-13
1.1951281879679327e-11
1.073215446749644e-11
3.285456227159044e-12
1.751304615097596e-11
9.69328183769947e-12
1.4256878890128674e-11
1.8463686663980645e-11
1.6789998748085357e-11
1.3065962377183832e-11
9.48747723743353e-12
1.827083980388774e-12
1.250280863467551e-11
1.169229416771757e-11
2.7556591136491363e-12
2.1224120204898175e-11
4.6696862865049085e-12
1.0144113164690774e-11
1.7116012653002367e-11
1.3269629105724457e-11
1.484376144206688e-11
1.2230907302519595e-11
7.554367184613901e-12
1.5606060458650956e-11
1.432338274263661e-11
1.0824116807257291e-11
1.3205576927969731e-11
2.1661562735400933e-11
1.5891958044177198e-11
1.573389989227894e-11
1.921306874834016e-11
6.446642488185378e-12
4.353220887176831e-12
9.148958722319076e-12
6.490621702639768e-12
2.4659130554941376e-11
2.114295074359458e-11
1.0279506419993235e-11
1.7831793037089072e-11
9.723976564583636e-12
9.182910311002734e-12
1.0788180881916244e-11
2.242748508840871e-11
1.593142573267823e-11
1.771944913725573e-11
8.511317816774147e-12
6.551416293417283e-12
1.7089126061406388e-11
6.175310418861364e-13
8.574713155874783e-12
5.705500479811464e-12
9.62068257547818e-12
2.6093880544273228e-11
1.4181223897597456e-11
4.2837144053443936e-12
1.1606257931949871e-12
6.680857791998036e-12
2.1424147437685313e-11
2.4265852751376534e-12
1.6507356275914958e-11
7.820176882811097e-12
1.5096617603224755e-11
1.0167753037125485e-11
2.5480513441151406e-11
1.784781403661436e-11
1.0474533335375096e-11
1.4400003334461283e-11
7.088238781119166e-12
1.9526007801939233e-11
3.5127650820156582e-12
1.554078725772146e-11
2.365931822141581e-11
4.997390779497025e-12
1.1748760336794048e-14
1.4741807604503445e-11
1.1792129768314265e-11
5.460606697832856e-12
5.795255498269047e-12
6.268827786307896e-12
2.0059769332120456e-11
5.623521314388241e-12
9.666714438231106e-12
3.5895275945916437e-12
8.387246673766678e-12
9.912017782964309e-12
1.7703630601733172e-11
1.6405148081837533e-11
1.0657693753267965e-11
8.625154785842786e-12
2.1957510786650176e-11
7.746652795294847e-12
1.87781595237073e-11
6.604145499701453e-12
9.62481205648112e-12