# vtk DataFile Version 3.0
d:\study\Notebook\Juno\MPC\Open\examples\stress_concentration\3D_MetaFEM.vtk
ASCII
DATASET UNSTRUCTURED_GRID
POINTS 15645 float
0.7071067690849304 0.7071067690849304 0.0
1.0 0.0 0.0
0.7071067690849304 0.0 0.7071067690849304
0.5773502588272095 0.5773502588272095 0.5773502588272095
0.9158098101615906 0.9168503880500793 0.0
1.307692289352417 0.0 0.0
0.9244215488433838 0.0 0.9214445948600769
0.9657715559005737 0.9654590487480164 0.9657997488975525
0.0 0.0 1.0
0.0 0.7071067690849304 0.7071067690849304
0.0 0.0 1.307692289352417
0.0 0.9205286502838135 0.9242151975631714
0.0 1.0 0.0
0.0 1.307692289352417 0.0
5.0 0.0 0.0
5.0 0.0 1.0
5.0 1.0 0.0
5.0 1.0 1.0
5.0 0.0 5.0
1.0 0.0 5.0
5.0 1.0 5.0
1.0 1.0 5.0
0.0 0.0 5.0
0.0 1.0 5.0
0.0 5.0 0.0
1.0 5.0 0.0
0.0 5.0 1.0
1.0 5.0 1.0
5.0 5.0 0.0
5.0 5.0 1.0
0.0 5.0 5.0
1.0 5.0 5.0
5.0 5.0 5.0
0.8660253882408142 0.5 0.0
0.9659258127212524 0.258819043636322 0.0
0.9659258127212524 0.0 0.258819043636322
0.8660253882408142 0.0 0.5
0.6922546029090881 0.20388031005859375 0.6922546029090881
0.6484452486038208 0.3987950384616852 0.6484452486038208
0.6484452486038208 0.6484452486038208 0.3987950384616852
0.6922546029090881 0.6922546029090881 0.20388029515743256
1.1017253398895264 0.5781607031822205 0.0
1.2253122329711914 0.2864992320537567 0.0
1.2224467992782593 0.0 0.28279435634613037
1.1023565530776978 0.0 0.5736885070800781
0.9494515657424927 0.3113735020160675 0.948154866695404
0.9523741602897644 0.6196948289871216 0.9519538879394531
0.9515866637229919 0.951774001121521 0.6206870079040527
0.9435243010520935 0.9440903663635254 0.30903953313827515
0.5 0.0 0.8660253882408142
0.258819043636322 0.0 0.9659258127212524
0.0 0.258819043636322 0.9659258127212524
0.0 0.5 0.8660253882408142
0.20388031005859375 0.6922546029090881 0.6922546029090881
0.3987950384616852 0.6484452486038208 0.6484452486038208
0.28537750244140625 0.0 1.2263391017913818
0.5804507732391357 0.0 1.1079472303390503
0.0 0.5734570026397705 1.102539300918579
0.0 0.28203439712524414 1.2208460569381714
0.6200862526893616 0.9513506889343262 0.9525014162063599
0.3073759078979492 0.9437589645385742 0.9459142684936523
0.0 0.8660253882408142 0.5
0.0 0.9659258127212524 0.258819043636322
0.258819043636322 0.9659258127212524 0.0
0.5 0.8660253882408142 0.0
0.0 1.1035704612731934 0.5781225562095642
0.0 1.223950743675232 0.2845819592475891
0.2878890633583069 1.224700689315796 0.0
0.5767417550086975 1.1010639667510986 0.0
1.615384578704834 0.0 0.0
1.923076868057251 0.0 0.0
2.230769157409668 0.0 0.0
2.538461446762085 0.0 0.0
2.846153736114502 0.0 0.0
3.153846263885498 0.0 0.0
3.461538553237915 0.0 0.0
3.769230842590332 0.0 0.0
4.07692289352417 0.0 0.0
4.384615421295166 0.0 0.0
4.692307472229004 0.0 0.0
5.0 0.0 0.3333333432674408
5.0 0.0 0.6666666865348816
4.66697359085083 0.0 0.9936658143997192
4.33343505859375 0.0 0.987189769744873
3.999667167663574 0.0 0.9806551933288574
3.665849208831787 0.0 0.9741044044494629
3.3320369720458984 0.0 0.9675402045249939
2.9982330799102783 0.0 0.960940957069397
2.6644246578216553 0.0 0.9542568325996399
2.3305165767669678 0.0 0.9473878145217896
1.996046781539917 0.0 0.9401917457580566
1.6591012477874756 0.0 0.9327428340911865
1.3123514652252197 0.0 0.926862895488739
1.2988842725753784 0.9241625070571899 0.0
1.6448053121566772 0.9305313229560852 0.0
1.9822919368743896 0.9372031092643738 0.0
2.3180155754089355 0.9441081881523132 0.0
2.653449296951294 0.9511134624481201 0.0
2.988872528076172 0.9581542611122131 0.0
3.324317455291748 0.965206503868103 0.0
3.6597766876220703 0.9722622632980347 0.0
3.995242118835449 0.979319155216217 0.0
4.330710411071777 0.9863764047622681 0.0
4.665893077850342 0.9933523535728455 0.0
5.0 1.0 0.3333333432674408
5.0 1.0 0.6666666865348816
4.680606365203857 1.0133273601531982 1.0134127140045166
4.360956192016602 1.0264374017715454 1.0266000032424927
4.04123067855835 1.0395265817642212 1.0397591590881348
3.721471071243286 1.052608609199524 1.0529041290283203
3.4016878604888916 1.0656765699386597 1.0660253763198853
3.0818545818328857 1.0787010192871094 1.0790833234786987
2.761802911758423 1.0915220975875854 1.0918930768966675
2.4407598972320557 1.1033823490142822 1.1036466360092163
2.11578631401062 1.1113245487213135 1.111352562904358
1.7783559560775757 1.1068166494369507 1.106647253036499
1.4078811407089233 1.0701179504394531 1.0701375007629395
5.0 0.6666666865348816 1.0
5.0 0.3333333432674408 1.0
5.0 0.3333333432674408 0.0
5.0 0.6666666865348816 0.0
5.0 0.0 1.3333333730697632
5.0 0.0 1.6666666269302368
5.0 0.0 2.0
5.0 0.0 2.3333332538604736
5.0 0.0 2.6666667461395264
5.0 0.0 3.0
5.0 0.0 3.3333332538604736
5.0 0.0 3.6666667461395264
5.0 0.0 4.0
5.0 0.0 4.333333492279053
5.0 0.0 4.666666507720947
4.666666507720947 0.0 5.0
4.333333492279053 0.0 5.0
4.0 0.0 5.0
3.6666667461395264 0.0 5.0
3.3333332538604736 0.0 5.0
3.0 0.0 5.0
2.6666667461395264 0.0 5.0
2.3333332538604736 0.0 5.0
2.0 0.0 5.0
1.6666666269302368 0.0 5.0
1.3333333730697632 0.0 5.0
0.9944159984588623 0.0 4.668516159057617
0.9885578155517578 0.0 4.336238861083984
0.9825307130813599 0.0 4.0034894943237305
0.9764721393585205 0.0 3.670600414276123
0.9704656600952148 0.0 3.337705135345459
0.9645818471908569 0.0 3.0047929286956787
0.9589579105377197 0.0 2.671802282333374
0.953824520111084 0.0 2.338501453399658
0.9494187831878662 0.0 2.004112720489502
0.9453145265579224 0.0 1.66617751121521
0.9392549991607666 0.0 1.3161301612854004
5.0 1.0 4.666666507720947
5.0 1.0 4.333333492279053
5.0 1.0 4.0
5.0 1.0 3.6666667461395264
5.0 1.0 3.3333332538604736
5.0 1.0 3.0
5.0 1.0 2.6666667461395264
5.0 1.0 2.3333332538604736
5.0 1.0 2.0
5.0 1.0 1.6666666269302368
5.0 1.0 1.3333333730697632
1.3333333730697632 1.0 5.0
1.6666666269302368 1.0 5.0
2.0 1.0 5.0
2.3333332538604736 1.0 5.0
2.6666667461395264 1.0 5.0
3.0 1.0 5.0
3.3333332538604736 1.0 5.0
3.6666667461395264 1.0 5.0
4.0 1.0 5.0
4.333333492279053 1.0 5.0
4.666666507720947 1.0 5.0
1.074213981628418 1.0733566284179688 1.411269187927246
1.1078693866729736 1.1066263914108276 1.778651237487793
1.11148202419281 1.110399842262268 2.1152870655059814
1.103298544883728 1.1025530099868774 2.4401962757110596
1.091366171836853 1.0908758640289307 2.7613165378570557
1.0784635543823242 1.0781195163726807 3.081374406814575
1.065337061882019 1.0650721788406372 3.4011459350585938
1.052166223526001 1.0519472360610962 3.720842123031616
1.0389947891235352 1.0388092994689941 4.040525913238525
1.025853157043457 1.0257068872451782 4.360231876373291
1.012797236442566 1.012711763381958 4.680008411407471
1.0 0.6666666865348816 5.0
1.0 0.3333333432674408 5.0
5.0 0.3333333432674408 5.0
5.0 0.6666666865348816 5.0
0.6666666865348816 0.0 5.0
0.3333333432674408 0.0 5.0
0.0 0.0 4.692307472229004
0.0 0.0 4.384615421295166
0.0 0.0 4.07692289352417
0.0 0.0 3.769230842590332
0.0 0.0 3.461538553237915
0.0 0.0 3.153846263885498
0.0 0.0 2.846153736114502
0.0 0.0 2.538461446762085
0.0 0.0 2.230769157409668
0.0 0.0 1.923076868057251
0.0 0.0 1.615384578704834
0.3333333432674408 1.0 5.0
0.6666666865348816 1.0 5.0
0.0 0.9313390254974365 1.31887686252594
0.0 0.9339994192123413 1.6613824367523193
0.0 0.940161943435669 1.994254231452942
0.0 0.9471133947372437 2.327535390853882
0.0 0.9536557197570801 2.661357879638672
0.0 0.9601984024047852 2.9951820373535156
0.0 0.9667423963546753 3.3290112018585205
0.0 0.9732900857925415 3.662855386734009
0.0 0.9798487424850464 3.9967410564422607
0.0 0.9864389896392822 4.330738544464111
0.0 0.9931132793426514 4.665021896362305
0.0 0.3333333432674408 5.0
0.0 0.6666666865348816 5.0
0.0 1.615384578704834 0.0
0.0 1.923076868057251 0.0
0.0 2.230769157409668 0.0
0.0 2.538461446762085 0.0
0.0 2.846153736114502 0.0
0.0 3.153846263885498 0.0
0.0 3.461538553237915 0.0
0.0 3.769230842590332 0.0
0.0 4.07692289352417 0.0
0.0 4.384615421295166 0.0
0.0 4.692307472229004 0.0
0.3333333432674408 5.0 0.0
0.6666666865348816 5.0 0.0
0.9932247400283813 4.665525913238525 0.0
0.9862460494041443 4.330338478088379 0.0
0.9791871309280396 3.994868278503418 0.0
0.9721267223358154 3.6594011783599854 0.0
0.9650608897209167 3.323939323425293 0.0
0.9579800367355347 2.9884889125823975 0.0
0.9508605003356934 2.6530561447143555 0.0
0.9436523914337158 2.317615032196045 0.0
0.9362913966178894 1.981921672821045 0.0
0.9289076924324036 1.6446532011032104 0.0
0.9231070280075073 1.299742579460144 0.0
0.0 1.3110969066619873 0.9335529804229736
0.0 1.6593016386032104 0.9382752180099487
0.0 1.996669888496399 0.943229615688324
0.0 2.331267833709717 0.9489011764526367
0.0 2.665203332901001 0.9550380110740662
0.0 2.9990100860595703 0.9614073038101196
0.0 3.332808017730713 0.9678797721862793
0.0 3.6666150093078613 0.9743948578834534
0.0 4.000430107116699 0.9809269309043884
0.0 4.334194183349609 0.9874533414840698
0.0 4.66756010055542 0.9938663244247437
0.3333333432674408 5.0 1.0
0.6666666865348816 5.0 1.0
1.013215184211731 4.680449962615967 1.0131887197494507
1.026274561882019 4.360706806182861 1.0262291431427002
1.0393542051315308 4.040931224822998 1.0392942428588867
1.05243718624115 3.721134901046753 1.052369475364685
1.0654997825622559 3.401315927505493 1.0654364824295044
1.0784919261932373 3.0814383029937744 1.0784591436386108
1.0912091732025146 2.76131272315979 1.0912612676620483
1.1027932167053223 2.440117597579956 1.1030384302139282
1.110271692276001 2.114919900894165 1.1108437776565552
1.1055911779403687 1.777449607849121 1.1064269542694092
1.0696483850479126 1.4073785543441772 1.0703043937683105
1.0 5.0 0.6666666865348816
1.0 5.0 0.3333333432674408
0.0 5.0 0.3333333432674408
0.0 5.0 0.6666666865348816
1.3333333730697632 5.0 0.0
1.6666666269302368 5.0 0.0
2.0 5.0 0.0
2.3333332538604736 5.0 0.0
2.6666667461395264 5.0 0.0
3.0 5.0 0.0
3.3333332538604736 5.0 0.0
3.6666667461395264 5.0 0.0
4.0 5.0 0.0
4.333333492279053 5.0 0.0
4.666666507720947 5.0 0.0
5.0 4.666666507720947 0.0
5.0 4.333333492279053 0.0
5.0 4.0 0.0
5.0 3.6666667461395264 0.0
5.0 3.3333332538604736 0.0
5.0 3.0 0.0
5.0 2.6666667461395264 0.0
[...]
POINT_DATA 15645
SCALARS d2 float 1
LOOKUP_TABLE default
6.76260662176987e-12
2.8191272419306066e-14
2.6454839215637713e-14
5.457270493162805e-12
6.299458060897217e-12
1.6627677007538562e-14
1.604496079437925e-14
5.386417278902844e-12
2.820711787362451e-14
6.761561848825422e-12
1.6619237583774073e-14
6.282097293430744e-12
9.644278157060377e-12
9.959431280323144e-12
1.1781490864863986e-14
1.178991673177662e-14
4.757897142386351e-12
4.756952880209187e-12
1.1742037465638113e-14
1.1789942873794783e-14
4.711371493695317e-12
4.756955769392336e-12
1.1781497193763673e-14
4.757901405358609e-12
2.4558670237932682e-11
2.448211131607865e-11
2.4482110632768562e-11
2.441517293418866e-11
2.3838397764783727e-11
2.3830351645317794e-11
2.3838410673617736e-11
2.3830364822530258e-11
2.36728066746059e-11
4.770633376597656e-12
2.4711680517108267e-12
2.852711075546491e-14
2.7860284870983626e-14
1.9535309506312004e-12
3.797804974701972e-12
6.172081594557038e-12
6.6118864121429956e-12
3.882091231593389e-12
1.834965139623384e-12
1.727908799878767e-14
1.7241769346640998e-14
1.8187337653870995e-12
3.5359960878784788e-12
5.749953943706313e-12
6.13909354771456e-12
2.7773427634744176e-14
2.846978259878928e-14
2.4713693916217124e-12
4.771131820490819e-12
6.612009406259501e-12
6.172000068115071e-12
1.7206503529120755e-14
1.7115544918222698e-14
3.852909969826373e-12
1.8151220728812908e-12
5.746739527321668e-12
6.131830309443796e-12
8.326428758064417e-12
9.313277123611581e-12
9.313088946547965e-12
8.327079974501655e-12
8.390935429230613e-12
9.552561886751306e-12
9.546213860623843e-12
8.39035133005654e-12
1.3687350956464906e-14
1.2800130791773866e-14
1.244443724775609e-14
1.2269303958521003e-14
1.2168069361178131e-14
1.2099870868129117e-14
1.2048020303002297e-14
1.200344393983427e-14
1.196036065444615e-14
1.1913505261074195e-14
1.1856708414919607e-14
1.1782417153337216e-14
1.1785351317058073e-14
1.1862232322645287e-14
1.1917032391342276e-14
1.1962704815828219e-14
1.2005470826265333e-14
1.2050661597231993e-14
1.2104602829292623e-14
1.217692098428927e-14
1.2287157043010328e-14
1.2473482310038844e-14
1.2837637792377735e-14
1.364613878791142e-14
5.258099800893504e-12
4.868909800723549e-12
4.716940718249317e-12
4.661687168221401e-12
4.648633006040853e-12
4.6549234621424444e-12
4.670393372698366e-12
4.690110180207806e-12
4.711270121295643e-12
4.731739988773368e-12
4.748789010532619e-12
4.757782808238012e-12
4.757476638566609e-12
4.840627604998124e-12
4.918419947510347e-12
4.993823568169016e-12
5.068714595755985e-12
5.144630450672604e-12
5.223213363809396e-12
5.306205798894476e-12
5.3940661081965844e-12
5.479270418035179e-12
5.5359203740000646e-12
5.500730244599361e-12
3.1731343559018952e-12
1.591776748254307e-12
1.5918885157378777e-12
3.173524737172454e-12
1.1795517827977687e-14
1.1801443413906281e-14
1.180701253864352e-14
1.1811530650527047e-14
1.1814411738686947e-14
1.1815129454350887e-14
1.1813167045269938e-14
1.1807966423231585e-14
1.1798921232569556e-14
1.1785254365826467e-14
1.1766046055318026e-14
1.1766053270769998e-14
1.1785268266848614e-14
1.1798920011137826e-14
1.1807983552662157e-14
1.1813184676972475e-14
1.1815152209977023e-14
1.1814421783950382e-14
1.1811542783378862e-14
1.1807011786456783e-14
1.1801455532042996e-14
1.1795524005463121e-14
1.1861976841450475e-14
1.1916619365719422e-14
1.1962189143109845e-14
1.2004802776574323e-14
1.204973828330407e-14
1.2103174870441795e-14
1.2174503680951908e-14
1.2282606899016535e-14
1.2464023652168452e-14
1.2816193465203486e-14
1.3611268088518204e-14
4.720220849499408e-12
4.727644807320085e-12
4.7338535318284835e-12
4.739016214295043e-12
4.7432813134420124e-12
4.746778401823795e-12
4.749620062226531e-12
4.751903668917147e-12
4.753711744872818e-12
4.755117015924741e-12
4.756179928134399e-12
4.756183647006257e-12
4.755120523557351e-12
4.753714812847062e-12
4.75190561043989e-12
4.749621123512103e-12
4.746778765748279e-12
4.743281180013323e-12
4.7390156356663785e-12
4.733852296396408e-12
4.7276433083702714e-12
4.720219404352887e-12
5.514083372130971e-12
5.534628205269179e-12
5.47475725867166e-12
5.390068096301193e-12
5.3031033176217575e-12
5.220428646526845e-12
5.141742377335641e-12
5.065561574061265e-12
4.990413514232891e-12
4.914959930331768e-12
4.837726378291976e-12
3.1731360215950314e-12
1.591777747826208e-12
1.5774155888304589e-12
3.143755930942583e-12
1.178537559716064e-14
1.1782430669464173e-14
1.1856726167409231e-14
1.1913487974589047e-14
1.1960347317461702e-14
1.2003448748861686e-14
1.2048019611768757e-14
1.2099871622231996e-14
1.216811389918536e-14
1.2269319127428013e-14
1.2444353083666484e-14
1.280055498618391e-14
1.368530998051178e-14
4.7577862694197684e-12
4.757479430326541e-12
5.261195491322231e-12
4.874234806399077e-12
4.727587986460912e-12
4.674875464219884e-12
4.660294757447596e-12
4.664464619399118e-12
4.677608786442602e-12
4.694944920717951e-12
4.7137575114599865e-12
4.732038461177816e-12
4.7476975406486515e-12
1.591890001885132e-12
3.173527285866238e-12
1.046339776300537e-11
1.1288629530032839e-11
1.2328104221430557e-11
1.3505793094738109e-11
1.4772401212897004e-11
1.6098253182656547e-11
1.7464583957170837e-11
1.8859011398079905e-11
2.0272715104583367e-11
2.1698619159729925e-11
2.3129940343634436e-11
2.454953569575527e-11
2.4523269558567916e-11
2.292287873617684e-11
2.1357364632313276e-11
1.9794124527396054e-11
1.823978172830858e-11
1.669929672819614e-11
1.5177887237937457e-11
1.3681249665853743e-11
1.2215036358755183e-11
1.0781907389972407e-11
9.372476600660971e-12
7.936762873972816e-12
7.958797835982124e-12
9.418697584350711e-12
1.0837181772388724e-11
1.2270546945112262e-11
1.3733017244708846e-11
1.5224112142596763e-11
1.6739081656533363e-11
1.8272611326720513e-11
1.9819677732931883e-11
2.13751730669605e-11
2.2932284604114644e-11
2.447415724675533e-11
2.4451216637422916e-11
2.2915673750875647e-11
2.1411285640795377e-11
1.9905865604655838e-11
1.8401270325790276e-11
1.6898130507331012e-11
1.5395635691179173e-11
1.3890641083693866e-11
1.2375086080870457e-11
1.0830077907361232e-11
9.213685293073499e-12
7.437515368015567e-12
2.4451217585497632e-11
2.447415835903492e-11
2.4549536239250414e-11
2.4523269520842822e-11
2.4429380104184423e-11
2.4368885264401454e-11
2.4304364985497057e-11
2.4239058188260534e-11
2.417545239875594e-11
2.4115209524803528e-11
2.4059227207725265e-11
2.4007777726476565e-11
2.396066752908328e-11
2.3917367508820445e-11
2.38770403608563e-11
2.2255740630591824e-11
2.0672132804938173e-11
1.9086773339575804e-11
1.7499009302786045e-11
1.590859743789398e-11
1.43157397639028e-11
1.2721053200464904e-11
1.1125503260009115e-11
9.530284160519405e-12
7.936634393093555e-12
6.34562044402794e-12
2.436882181217235e-11
2.4315396345068963e-11
2.425809780564827e-11
2.419973285264961e-11
2.414249061617645e-11
2.4087868043891155e-11
2.4036707951652755e-11
2.398930747840783e-11
2.3945548953591208e-11
2.3905007377196616e-11
2.3866974890464348e-11
2.2247065939938623e-11
2.0662971853179867e-11
1.9077374606893216e-11
1.7489699661550403e-11
1.589973438962314e-11
1.4307670170774243e-11
1.2714073465738122e-11
1.1119820011960147e-11
9.52598462033508e-12
7.933668675106777e-12
6.343805661865592e-12
2.3837474657435752e-11
2.3834766959584872e-11
6.345625631849743e-12
7.936640385620782e-12
9.530290836946759e-12
1.1125511119532653e-11
1.2721062521603373e-11
1.4315750437353922e-11
1.5908609286165028e-11
1.7499021640930992e-11
1.9086785494726356e-11
2.067214518375508e-11
2.225575333232131e-11
2.387705039284961e-11
2.391737469328182e-11
2.396067267141341e-11
2.400778159814692e-11
2.4059229711559145e-11
2.4115211133010776e-11
2.417545320588508e-11
2.4239058341487387e-11
2.4304364190807485e-11
2.4368883546160117e-11
2.4429378756206464e-11
2.224707902101742e-11
2.0662984311578955e-11
1.907738700906649e-11
1.748971166001191e-11
1.589974533689734e-11
1.4307680197687916e-11
1.2714081976315093e-11
1.1119827121895984e-11
9.525990600071368e-12
7.933673382517245e-12
6.34380955095224e-12
2.4368820890937186e-11
2.4315395120213855e-11
2.4258096703208e-11
2.4199731876080594e-11
2.414249013622072e-11
2.4087868267086226e-11
2.403670939521323e-11
2.398931059699227e-11
2.3945553955242053e-11
2.39050145470389e-11
2.386698528366903e-11
2.3837487925303402e-11
2.3834780435243455e-11
6.280750313319563e-12
7.852224889284697e-12
9.42596713380732e-12
1.1002000581108029e-11
1.2580238079114974e-11
1.4160517606437198e-11
1.5742650117019526e-11
1.732644097255658e-11
1.8911685527156462e-11
2.0498134134223505e-11
2.2085380949955028e-11
2.3692508201932056e-11
2.371149539812905e-11
2.3729210995741624e-11
2.3745536613190724e-11
2.3760503313287665e-11
2.3774185311676687e-11
2.3786651520777057e-11
2.3797935768850493e-11
2.380802661938629e-11
2.3816864256626963e-11
2.38243509350491e-11
2.3692506290720016e-11
2.3711491664720207e-11
2.372920555820454e-11
2.3745529471630616e-11
2.3760495182567814e-11
2.377417619157334e-11
2.3786641536432103e-11
2.3797924660398804e-11
2.380801416395897e-11
2.381685144148246e-11
2.3824337595073078e-11
4.669621092029018e-12
2.4072990410120315e-12
4.343562625542396e-12
2.234067375281145e-12
3.885469428350097e-12
1.903334550083622e-12
3.7113187622083115e-12
1.8734250636570463e-12
2.234037237196432e-12
2.4074211310263057e-12
4.34346129867339e-12
4.669920292825791e-12
1.8734662951274146e-12
1.888084190975977e-12
3.703311153460928e-12
3.86509303871339e-12
8.070387295480172e-12
8.998916444080432e-12
7.324927906843178e-12
8.07095265998191e-12
7.995088390731924e-12
9.125507810995993e-12
7.0920769390696524e-12
8.001992662704051e-12
1.39846926261998e-14
1.2925484992853533e-14
1.2501819778242304e-14
1.2298029907950909e-14
1.2183651646079127e-14
1.210920755082554e-14
1.2054129560329344e-14
1.2007844224263958e-14
1.196379300223153e-14
1.1916325358068156e-14
1.1858825364343392e-14
1.4080540283013848e-14
1.2956124112508107e-14
1.2521443600884534e-14
1.2306835238040807e-14
1.2188158275846646e-14
1.2111492190028077e-14
1.2055436731451333e-14
1.2008787275616797e-14
1.1964760616802832e-14
1.1917619978639062e-14
1.1860764764954087e-14
5.429343095881476e-12
5.172607975382899e-12
5.0449920043736325e-12
4.971203895139753e-12
4.924272305202343e-12
4.891777749012559e-12
4.867049609086307e-12
4.8462574536565294e-12
4.82692874817682e-12
4.807141168950961e-12
4.784953983589544e-12
5.4576842310086705e-12
5.3568231768536984e-12
5.272231730601512e-12
5.1960410391757095e-12
5.128637871614372e-12
5.069167744188785e-12
5.015179639409156e-12
4.964354045563817e-12
4.914798935764357e-12
4.8649173186522215e-12
4.813123759012549e-12
1.59187359721675e-12
1.5918420343078835e-12
3.1734759757748372e-12
3.17335444094072e-12
1.6305350861667674e-12
1.5659215443277295e-12
1.5464624127375368e-12
1.5431712927043847e-12
1.5463655080207904e-12
1.5523664739853858e-12
1.5596009679935345e-12
1.5672652058216932e-12
1.574817894836455e-12
1.581715043844328e-12
1.5874397080891658e-12
3.360437310589945e-12
3.1609243572344408e-12
3.092310706638834e-12
3.073707352724531e-12
3.075626354481665e-12
3.0865339339244294e-12
3.101518761218088e-12
3.118204315039187e-12
3.135158291776564e-12
3.1511371152672376e-12
3.1651316126594706e-12
1.8542341533859627e-12
1.8729364690853984e-12
1.8606597222172716e-12
1.834288578262076e-12
1.8041954286220992e-12
1.7739388029976017e-12
1.7441356685904258e-12
1.7146267512548898e-12
1.6850676881230167e-12
1.6550614848855338e-12
1.6241438224374409e-12
3.641300524436158e-12
3.6845461717985714e-12
3.662340394289445e-12
3.6130754710508653e-12
3.5569563242147036e-12
3.501180859333133e-12
3.446936317607699e-12
3.393728037442406e-12
3.3407419649820702e-12
3.2870766218523316e-12
3.2316461620784417e-12
1.186307071331258e-14
1.1862858837619179e-14
1.186167059517232e-14
1.1859375499944751e-14
1.1855770054316848e-14
1.1850563016856414e-14
1.1843457122531187e-14
1.1834024342742987e-14
1.182187839768869e-14
1.1806588268552377e-14
1.1787829007998785e-14
1.1914649706123525e-14
1.1910396035279368e-14
1.1904710261132747e-14
1.1897794520970822e-14
1.1889715351562492e-14
1.188034996793809e-14
1.1869563323457947e-14
1.1857047533753131e-14
1.1842531682910586e-14
1.18257472819814e-14
1.1806594190234874e-14
1.1957854889056245e-14
1.1950455978967642e-14
1.1941262410988011e-14
1.1930740725909116e-14
1.1919165258776784e-14
1.1906529819635221e-14
1.1892794160132902e-14
1.18777240537311e-14
1.1861062184059182e-14
1.1842533332507754e-14
1.182187038762743e-14
1.1998228230552543e-14
1.1987692974048729e-14
1.1975056170011315e-14
1.1961077915719445e-14
1.194620846608653e-14
1.193055055188029e-14
1.1914086089287723e-14
1.1896585224830447e-14
1.18777223771137e-14
1.1857050224965574e-14
1.1834021331152487e-14
1.2040350144919944e-14
1.20258317042599e-14
1.2008953126807494e-14
1.1990931431470808e-14
1.197238351903933e-14
1.1953488804864047e-14
1.1934169441886087e-14
1.1914092725214337e-14
1.1892791576192048e-14
1.1869566602600319e-14
1.18434441512285e-14
1.2089407317711772e-14
1.2068654548926805e-14
1.2045593373630768e-14
1.2022064274718213e-14
1.1998850381418693e-14
1.1976081387887751e-14
1.195351105098465e-14
1.1930579574842821e-14
1.1906548092995109e-14
1.1880381445590846e-14
1.185057683953299e-14
1.2152491168474725e-14
1.2121063285636178e-14
1.2087944551764003e-14
1.2056193393662421e-14
1.2026580448996617e-14
1.1998894280125959e-14
1.1972437234412187e-14
1.1946252663160983e-14
1.1919184595528515e-14
1.1889735017836698e-14
1.1855773926904328e-14
1.2243345590560234e-14
1.2190276114194525e-14
1.2139811442853583e-14
1.2095118242087001e-14
1.2056387701487104e-14
1.2022263443178138e-14
1.1991106222415813e-14
1.1961224496518142e-14
1.1930848678814031e-14
1.1897864018100774e-14
1.1859415543122676e-14
1.238098966931708e-14
1.228854263477077e-14
1.2206075249581717e-14
1.2140717354640051e-14
1.2088808182365602e-14
1.2046261199777693e-14
1.2009454678518184e-14
1.1975424316002785e-14
1.1941528465095235e-14
1.1904880367988498e-14
1.1861764386388628e-14
1.2625319558439145e-14
1.2428914788550435e-14
1.2290650834889754e-14
1.2192596142444698e-14
1.212276130484014e-14
1.20698242363726e-14
1.2026651817969594e-14
1.1988267365742108e-14
1.1950855545674609e-14
1.1910633247077387e-14
1.1862945034849252e-14
1.2951619573329363e-14
1.262362496289425e-14
1.2381582238477113e-14
1.2244419588340951e-14
1.2153239947841474e-14
1.2089879593784395e-14
1.2040653777862964e-14
1.199839193253395e-14
1.1957919530987125e-14
1.1914596490512601e-14
1.186294517107056e-14
4.84998385736818e-12
4.849069533403684e-12
4.8417315667146035e-12
4.831459439461995e-12
4.819939843154713e-12
4.807739965676988e-12
4.7949827398703464e-12
4.781641151933418e-12
4.767623237573806e-12
4.752807991671563e-12
4.737057211303829e-12
4.937002412644818e-12
4.936781947537865e-12
4.924427994322523e-12
4.906535492208563e-12
4.886506766261884e-12
4.865585070405976e-12
4.84412260111439e-12
4.822166259727091e-12
4.799647463927722e-12
4.7764564647239345e-12
4.752482649654681e-12
5.021095555129176e-12
5.021557601899875e-12
5.004449479253919e-12
4.979251779291286e-12
4.951017043638567e-12
4.921652678541465e-12
4.891732407073216e-12
4.861366757852592e-12
4.83049824975873e-12
4.79901632942169e-12
4.766820345978919e-12
5.104358261573558e-12
5.105316384369829e-12
5.0833986769026454e-12
5.050908509543399e-12
5.01451138313822e-12
4.976766308193184e-12
4.938454769408563e-12
4.89973799100178e-12
4.8605575681652944e-12
4.820785658495943e-12
4.780302218157842e-12
5.188248899590996e-12
5.189335488867492e-12
5.1623213322744005e-12
5.1223339025597515e-12
5.077639957911972e-12
5.031432343354464e-12
4.9846842098033695e-12
4.9375905694649756e-12
4.890071639284904e-12
4.841962968964552e-12
4.793091856585107e-12
5.274118517608232e-12
5.274678873068767e-12
5.2420186838426916e-12
5.1941184425101134e-12
5.1408356047160705e-12
5.085971061634429e-12
5.030660659594881e-12
4.975107314875004e-12
4.919186461900846e-12
4.862672253182703e-12
4.8053067569728805e-12
5.363253130229255e-12
5.362280171402815e-12
5.3231177315998664e-12
5.266656301502015e-12
5.2043363890807364e-12
5.140523056406666e-12
5.076470027151632e-12
5.012344379280535e-12
4.94794738234209e-12
4.882961688933299e-12
4.817011672113456e-12
5.455060260789464e-12
5.451406551538014e-12
5.404814029509903e-12
5.339092588766989e-12
5.267286213945671e-12
5.194285612218823e-12
5.121397000007921e-12
5.048701266855489e-12
4.975884778295535e-12
4.9025017512462546e-12
4.8280518930157e-12
5.539678810573785e-12
5.533105276405531e-12
5.479445938250165e-12
5.404729126658046e-12
5.323814974483521e-12
5.242186963626355e-12
5.161177809308332e-12
5.080732458479918e-12
5.000372983226888e-12
4.919513705630989e-12
4.8375476299859135e-12
5.5883056164364765e-12
5.5813505794695995e-12
5.524602643003558e-12
5.444187137540795e-12
5.357135582002479e-12
5.269917695282277e-12
5.183946707528389e-12
5.098999535873854e-12
5.0144042159402374e-12
4.9294303141155125e-12
4.84331467420882e-12
5.556533658669685e-12
5.560216533969693e-12
5.507442145061022e-12
5.42810202648919e-12
5.3415487161533575e-12
5.255564603679562e-12
5.171632396953445e-12
5.089276492990063e-12
5.007581399920889e-12
4.925582302846979e-12
4.842202284873964e-12
1.5805087934125794e-12
1.5830611265363985e-12
1.5851524295378346e-12
1.5868482499933315e-12
1.5882055729875132e-12
1.5892734635149396e-12
1.5900956675021964e-12
1.5907114418705534e-12
1.5911558034402735e-12
1.5914614993098075e-12
1.5916592019067836e-12
3.149821349539272e-12
3.1548579737118013e-12
3.1590188860514332e-12
3.1624277131849017e-12
3.1651919731093786e-12
3.1674054738629344e-12
3.1691506379524925e-12
3.170499841296522e-12
3.171517334675808e-12
3.1722614105610394e-12
3.1727849718550183e-12
1.5916579784330638e-12
1.5914600492361599e-12
1.5911546285778251e-12
1.5907106205346072e-12
1.590095031913555e-12
1.5892729308681924e-12
1.5882050946084442e-12
1.5868481613019912e-12
1.585152209200902e-12
1.5830609704201836e-12
1.5805089589474183e-12
3.1727827646281448e-12
3.1722590668004364e-12
3.171515365349569e-12
3.1704985045145545e-12
3.1691498061842797e-12
3.1674051011308792e-12
3.1651918412742434e-12
3.162427934384695e-12
3.1590193856901147e-12
3.154858668535943e-12
3.1498220800411226e-12
1.8524594850875767e-12
1.870043475240818e-12
1.8578817823983684e-12
1.831596474034299e-12
1.8016260315076643e-12
1.7715516807090215e-12
1.7419479020873138e-12
1.7126406002494662e-12
1.6833005035299874e-12
1.6536114672916021e-12
1.62325592755811e-12
3.640459580259671e-12
3.679632923857609e-12
3.656687828290878e-12
3.6078482880851035e-12
3.552241057045838e-12
3.496879852409245e-12
3.4429530408659737e-12
3.390021431137958e-12
3.3373611253064487e-12
3.284247181857507e-12
3.2298593156182437e-12
1.186042412071158e-14
1.1858520683852878e-14
1.1916955880194895e-14
1.1915774049354003e-14
1.1963842724221338e-14
1.196309934431233e-14
1.2007554406553258e-14
1.2006955667314309e-14
1.2053703511952478e-14
1.2052909342521436e-14
1.2108816692620768e-14
1.2107376605923032e-14
1.2183629691131135e-14
1.2180662070714445e-14
1.2298327530171786e-14
1.229258222215054e-14
1.2503906778316029e-14
1.249147360493791e-14
1.2916656365756982e-14
1.2903088360164558e-14
1.3997943046332335e-14
1.393897546931515e-14
4.818102651886866e-12
4.786563474224251e-12
4.872140524319152e-12
4.808754002631489e-12
4.923432054222539e-12
4.8280581681205906e-12
4.974219613523668e-12
4.84682181431476e-12
5.026327944235094e-12
4.8670710357129615e-12
5.08186812189015e-12
4.891340562609749e-12
5.1437412442598205e-12
4.923664101337922e-12
5.214944555037471e-12
4.9704064090877644e-12
5.293480893976634e-12
5.0410860059221e-12
5.3708963474813986e-12
5.159376081029766e-12
5.450329772289636e-12
5.405526231374033e-12
1.5889574501283972e-12
1.5828980480351398e-12
1.575263188302484e-12
1.566915499552176e-12
1.5584452351004387e-12
1.5504394107716956e-12
1.5438162909986315e-12
1.5405040498091227e-12
1.54376145709018e-12
1.5547354261545814e-12
1.6066351424650292e-12
3.1657561886817053e-12
3.1532204511047704e-12
3.1382570329082686e-12
3.1223625489240613e-12
3.1067680512587106e-12
3.0929457833711446e-12
3.083424258304724e-12
3.0835918303627654e-12
3.1019755461526916e-12
3.1628167196054073e-12
3.3500114289901163e-12