# vtk DataFile Version 3.0
d:\study\Notebook\Juno\MPC\Git\examples\cantilever\Cantilever.vtk
ASCII
DATASET UNSTRUCTURED_GRID
POINTS 1865 float
0.0 0.0 0.0
0.0 0.0 0.25
0.0 0.0 0.5
0.0 0.0 0.75
0.0 0.0 1.0
0.0 0.25 0.0
0.0 0.25 0.25
0.0 0.25 0.5
0.0 0.25 0.75
0.0 0.25 1.0
0.0 0.5 0.0
0.0 0.5 0.25
0.0 0.5 0.5
0.0 0.5 0.75
0.0 0.5 1.0
0.0 0.75 0.0
0.0 0.75 0.25
0.0 0.75 0.5
0.0 0.75 0.75
0.0 0.75 1.0
0.0 1.0 0.0
0.0 1.0 0.25
0.0 1.0 0.5
0.0 1.0 0.75
0.0 1.0 1.0
0.5 0.0 0.0
0.5 0.0 0.25
0.5 0.0 0.5
0.5 0.0 0.75
0.5 0.0 1.0
0.5 0.25 0.0
0.5 0.25 0.25
0.5 0.25 0.5
0.5 0.25 0.75
0.5 0.25 1.0
0.5 0.5 0.0
0.5 0.5 0.25
0.5 0.5 0.5
0.5 0.5 0.75
0.5 0.5 1.0
0.5 0.75 0.0
0.5 0.75 0.25
0.5 0.75 0.5
0.5 0.75 0.75
0.5 0.75 1.0
0.5 1.0 0.0
0.5 1.0 0.25
0.5 1.0 0.5
0.5 1.0 0.75
0.5 1.0 1.0
1.0 0.0 0.0
1.0 0.0 0.25
1.0 0.0 0.5
1.0 0.0 0.75
1.0 0.0 1.0
1.0 0.25 0.0
1.0 0.25 0.25
1.0 0.25 0.5
1.0 0.25 0.75
1.0 0.25 1.0
1.0 0.5 0.0
1.0 0.5 0.25
1.0 0.5 0.5
1.0 0.5 0.75
1.0 0.5 1.0
1.0 0.75 0.0
1.0 0.75 0.25
1.0 0.75 0.5
1.0 0.75 0.75
1.0 0.75 1.0
1.0 1.0 0.0
1.0 1.0 0.25
1.0 1.0 0.5
1.0 1.0 0.75
1.0 1.0 1.0
1.5 0.0 0.0
1.5 0.0 0.25
1.5 0.0 0.5
1.5 0.0 0.75
1.5 0.0 1.0
1.5 0.25 0.0
1.5 0.25 0.25
1.5 0.25 0.5
1.5 0.25 0.75
1.5 0.25 1.0
1.5 0.5 0.0
1.5 0.5 0.25
1.5 0.5 0.5
1.5 0.5 0.75
1.5 0.5 1.0
1.5 0.75 0.0
1.5 0.75 0.25
1.5 0.75 0.5
1.5 0.75 0.75
1.5 0.75 1.0
1.5 1.0 0.0
1.5 1.0 0.25
1.5 1.0 0.5
1.5 1.0 0.75
1.5 1.0 1.0
2.0 0.0 0.0
2.0 0.0 0.25
2.0 0.0 0.5
2.0 0.0 0.75
2.0 0.0 1.0
2.0 0.25 0.0
2.0 0.25 0.25
2.0 0.25 0.5
2.0 0.25 0.75
2.0 0.25 1.0
2.0 0.5 0.0
2.0 0.5 0.25
2.0 0.5 0.5
2.0 0.5 0.75
2.0 0.5 1.0
2.0 0.75 0.0
2.0 0.75 0.25
2.0 0.75 0.5
2.0 0.75 0.75
2.0 0.75 1.0
2.0 1.0 0.0
2.0 1.0 0.25
2.0 1.0 0.5
2.0 1.0 0.75
2.0 1.0 1.0
2.5 0.0 0.0
2.5 0.0 0.25
2.5 0.0 0.5
2.5 0.0 0.75
2.5 0.0 1.0
2.5 0.25 0.0
2.5 0.25 0.25
2.5 0.25 0.5
2.5 0.25 0.75
2.5 0.25 1.0
2.5 0.5 0.0
2.5 0.5 0.25
2.5 0.5 0.5
2.5 0.5 0.75
2.5 0.5 1.0
2.5 0.75 0.0
2.5 0.75 0.25
2.5 0.75 0.5
2.5 0.75 0.75
2.5 0.75 1.0
2.5 1.0 0.0
2.5 1.0 0.25
2.5 1.0 0.5
2.5 1.0 0.75
2.5 1.0 1.0
3.0 0.0 0.0
3.0 0.0 0.25
3.0 0.0 0.5
3.0 0.0 0.75
3.0 0.0 1.0
3.0 0.25 0.0
3.0 0.25 0.25
3.0 0.25 0.5
3.0 0.25 0.75
3.0 0.25 1.0
3.0 0.5 0.0
3.0 0.5 0.25
3.0 0.5 0.5
3.0 0.5 0.75
3.0 0.5 1.0
3.0 0.75 0.0
3.0 0.75 0.25
3.0 0.75 0.5
3.0 0.75 0.75
3.0 0.75 1.0
3.0 1.0 0.0
3.0 1.0 0.25
3.0 1.0 0.5
3.0 1.0 0.75
3.0 1.0 1.0
3.5 0.0 0.0
3.5 0.0 0.25
3.5 0.0 0.5
3.5 0.0 0.75
3.5 0.0 1.0
3.5 0.25 0.0
3.5 0.25 0.25
3.5 0.25 0.5
3.5 0.25 0.75
3.5 0.25 1.0
3.5 0.5 0.0
3.5 0.5 0.25
3.5 0.5 0.5
3.5 0.5 0.75
3.5 0.5 1.0
3.5 0.75 0.0
3.5 0.75 0.25
3.5 0.75 0.5
3.5 0.75 0.75
3.5 0.75 1.0
3.5 1.0 0.0
3.5 1.0 0.25
3.5 1.0 0.5
3.5 1.0 0.75
3.5 1.0 1.0
4.0 0.0 0.0
4.0 0.0 0.25
4.0 0.0 0.5
4.0 0.0 0.75
4.0 0.0 1.0
4.0 0.25 0.0
4.0 0.25 0.25
4.0 0.25 0.5
4.0 0.25 0.75
4.0 0.25 1.0
4.0 0.5 0.0
4.0 0.5 0.25
4.0 0.5 0.5
4.0 0.5 0.75
4.0 0.5 1.0
4.0 0.75 0.0
4.0 0.75 0.25
4.0 0.75 0.5
4.0 0.75 0.75
4.0 0.75 1.0
4.0 1.0 0.0
4.0 1.0 0.25
4.0 1.0 0.5
4.0 1.0 0.75
4.0 1.0 1.0
4.5 0.0 0.0
4.5 0.0 0.25
4.5 0.0 0.5
4.5 0.0 0.75
4.5 0.0 1.0
4.5 0.25 0.0
4.5 0.25 0.25
4.5 0.25 0.5
4.5 0.25 0.75
4.5 0.25 1.0
4.5 0.5 0.0
4.5 0.5 0.25
4.5 0.5 0.5
4.5 0.5 0.75
4.5 0.5 1.0
4.5 0.75 0.0
4.5 0.75 0.25
4.5 0.75 0.5
4.5 0.75 0.75
4.5 0.75 1.0
4.5 1.0 0.0
4.5 1.0 0.25
4.5 1.0 0.5
4.5 1.0 0.75
4.5 1.0 1.0
5.0 0.0 0.0
5.0 0.0 0.25
5.0 0.0 0.5
5.0 0.0 0.75
5.0 0.0 1.0
5.0 0.25 0.0
5.0 0.25 0.25
5.0 0.25 0.5
5.0 0.25 0.75
5.0 0.25 1.0
5.0 0.5 0.0
5.0 0.5 0.25
5.0 0.5 0.5
5.0 0.5 0.75
5.0 0.5 1.0
5.0 0.75 0.0
5.0 0.75 0.25
5.0 0.75 0.5
5.0 0.75 0.75
5.0 0.75 1.0
5.0 1.0 0.0
5.0 1.0 0.25
5.0 1.0 0.5
5.0 1.0 0.75
5.0 1.0 1.0
5.5 0.0 0.0
5.5 0.0 0.25
5.5 0.0 0.5
5.5 0.0 0.75
5.5 0.0 1.0
5.5 0.25 0.0
5.5 0.25 0.25
5.5 0.25 0.5
5.5 0.25 0.75
5.5 0.25 1.0
5.5 0.5 0.0
5.5 0.5 0.25
5.5 0.5 0.5
5.5 0.5 0.75
5.5 0.5 1.0
5.5 0.75 0.0
5.5 0.75 0.25
5.5 0.75 0.5
5.5 0.75 0.75
5.5 0.75 1.0
5.5 1.0 0.0
5.5 1.0 0.25
5.5 1.0 0.5
5.5 1.0 0.75
5.5 1.0 1.0
6.0 0.0 0.0
6.0 0.0 0.25
6.0 0.0 0.5
6.0 0.0 0.75
6.0 0.0 1.0
6.0 0.25 0.0
6.0 0.25 0.25
6.0 0.25 0.5
6.0 0.25 0.75
6.0 0.25 1.0
6.0 0.5 0.0
6.0 0.5 0.25
6.0 0.5 0.5
6.0 0.5 0.75
6.0 0.5 1.0
6.0 0.75 0.0
6.0 0.75 0.25
6.0 0.75 0.5
6.0 0.75 0.75
6.0 0.75 1.0
6.0 1.0 0.0
6.0 1.0 0.25
6.0 1.0 0.5
6.0 1.0 0.75
6.0 1.0 1.0
6.5 0.0 0.0
6.5 0.0 0.25
6.5 0.0 0.5
6.5 0.0 0.75
6.5 0.0 1.0
6.5 0.25 0.0
6.5 0.25 0.25
6.5 0.25 0.5
6.5 0.25 0.75
6.5 0.25 1.0
6.5 0.5 0.0
6.5 0.5 0.25
6.5 0.5 0.5
6.5 0.5 0.75
6.5 0.5 1.0
6.5 0.75 0.0
6.5 0.75 0.25
6.5 0.75 0.5
6.5 0.75 0.75
6.5 0.75 1.0
6.5 1.0 0.0
6.5 1.0 0.25
6.5 1.0 0.5
6.5 1.0 0.75
6.5 1.0 1.0
7.0 0.0 0.0
7.0 0.0 0.25
7.0 0.0 0.5
7.0 0.0 0.75
7.0 0.0 1.0
7.0 0.25 0.0
7.0 0.25 0.25
7.0 0.25 0.5
7.0 0.25 0.75
7.0 0.25 1.0
7.0 0.5 0.0
7.0 0.5 0.25
7.0 0.5 0.5
7.0 0.5 0.75
7.0 0.5 1.0
7.0 0.75 0.0
7.0 0.75 0.25
7.0 0.75 0.5
7.0 0.75 0.75
7.0 0.75 1.0
7.0 1.0 0.0
7.0 1.0 0.25
7.0 1.0 0.5
7.0 1.0 0.75
7.0 1.0 1.0
7.5 0.0 0.0
7.5 0.0 0.25
7.5 0.0 0.5
7.5 0.0 0.75
7.5 0.0 1.0
7.5 0.25 0.0
7.5 0.25 0.25
7.5 0.25 0.5
7.5 0.25 0.75
7.5 0.25 1.0
7.5 0.5 0.0
7.5 0.5 0.25
7.5 0.5 0.5
7.5 0.5 0.75
7.5 0.5 1.0
7.5 0.75 0.0
7.5 0.75 0.25
7.5 0.75 0.5
7.5 0.75 0.75
7.5 0.75 1.0
7.5 1.0 0.0
7.5 1.0 0.25
7.5 1.0 0.5
7.5 1.0 0.75
7.5 1.0 1.0
8.0 0.0 0.0
8.0 0.0 0.25
8.0 0.0 0.5
8.0 0.0 0.75
8.0 0.0 1.0
8.0 0.25 0.0
8.0 0.25 0.25
8.0 0.25 0.5
8.0 0.25 0.75
8.0 0.25 1.0
8.0 0.5 0.0
8.0 0.5 0.25
8.0 0.5 0.5
8.0 0.5 0.75
8.0 0.5 1.0
8.0 0.75 0.0
8.0 0.75 0.25
8.0 0.75 0.5
8.0 0.75 0.75
8.0 0.75 1.0
8.0 1.0 0.0
8.0 1.0 0.25
8.0 1.0 0.5
8.0 1.0 0.75
8.0 1.0 1.0
8.5 0.0 0.0
8.5 0.0 0.25
8.5 0.0 0.5
8.5 0.0 0.75
8.5 0.0 1.0
8.5 0.25 0.0
8.5 0.25 0.25
8.5 0.25 0.5
8.5 0.25 0.75
8.5 0.25 1.0
8.5 0.5 0.0
8.5 0.5 0.25
8.5 0.5 0.5
8.5 0.5 0.75
8.5 0.5 1.0
8.5 0.75 0.0
8.5 0.75 0.25
8.5 0.75 0.5
8.5 0.75 0.75
8.5 0.75 1.0
8.5 1.0 0.0
8.5 1.0 0.25
8.5 1.0 0.5
8.5 1.0 0.75
8.5 1.0 1.0
9.0 0.0 0.0
9.0 0.0 0.25
9.0 0.0 0.5
9.0 0.0 0.75
9.0 0.0 1.0
9.0 0.25 0.0
9.0 0.25 0.25
9.0 0.25 0.5
9.0 0.25 0.75
9.0 0.25 1.0
9.0 0.5 0.0
9.0 0.5 0.25
9.0 0.5 0.5
9.0 0.5 0.75
9.0 0.5 1.0
9.0 0.75 0.0
9.0 0.75 0.25
9.0 0.75 0.5
9.0 0.75 0.75
9.0 0.75 1.0
9.0 1.0 0.0
9.0 1.0 0.25
9.0 1.0 0.5
9.0 1.0 0.75
9.0 1.0 1.0
9.5 0.0 0.0
9.5 0.0 0.25
9.5 0.0 0.5
9.5 0.0 0.75
9.5 0.0 1.0
9.5 0.25 0.0
9.5 0.25 0.25
9.5 0.25 0.5
9.5 0.25 0.75
9.5 0.25 1.0
9.5 0.5 0.0
9.5 0.5 0.25
9.5 0.5 0.5
9.5 0.5 0.75
9.5 0.5 1.0
9.5 0.75 0.0
9.5 0.75 0.25
9.5 0.75 0.5
9.5 0.75 0.75
9.5 0.75 1.0
9.5 1.0 0.0
9.5 1.0 0.25
9.5 1.0 0.5
9.5 1.0 0.75
9.5 1.0 1.0
10.0 0.0 0.0
10.0 0.0 0.25
10.0 0.0 0.5
10.0 0.0 0.75
10.0 0.0 1.0
10.0 0.25 0.0
10.0 0.25 0.25
10.0 0.25 0.5
10.0 0.25 0.75
10.0 0.25 1.0
10.0 0.5 0.0
10.0 0.5 0.25
10.0 0.5 0.5
10.0 0.5 0.75
10.0 0.5 1.0
10.0 0.75 0.0
10.0 0.75 0.25
10.0 0.75 0.5
10.0 0.75 0.75
10.0 0.75 1.0
10.0 1.0 0.0
10.0 1.0 0.25
10.0 1.0 0.5
10.0 1.0 0.75
10.0 1.0 1.0
4.75 0.0 0.75
5.75 0.0 0.5
7.75 0.25 0.0
0.75 0.5 0.75
8.25 0.25 0.75
3.75 0.5 0.75
8.25 0.5 0.75
8.25 0.5 0.0
9.75 0.0 0.5
0.75 0.75 0.0
3.25 0.5 0.5
8.25 0.25 0.25
7.75 0.25 0.25
9.25 0.25 0.25
9.25 0.0 0.25
8.75 0.0 0.75
2.25 0.5 0.25
9.25 0.5 0.0
2.75 0.75 0.25
3.25 0.75 0.75
8.25 0.5 0.25
4.75 0.25 0.0
5.25 0.5 0.75
2.25 0.5 0.5
8.25 0.75 0.5
8.75 0.5 0.5
2.75 0.5 0.25
0.25 0.0 0.25
4.75 0.5 0.75
6.25 0.5 0.5
5.75 0.0 0.25
7.75 0.5 0.25
0.75 0.5 0.25
2.75 0.25 0.75
4.75 0.0 0.5
9.75 0.75 0.25
1.75 0.0 0.25
0.75 0.0 0.0
0.75 0.25 0.0
0.25 0.5 0.5
7.75 0.5 0.75
4.25 0.25 0.5
2.75 0.25 0.25
3.75 0.0 0.5
0.75 0.0 0.25
5.25 0.75 0.25
8.25 0.25 0.5
4.25 0.25 0.0
5.75 0.25 0.75
3.75 0.0 0.0
8.75 0.25 0.0
0.25 0.25 0.0
6.25 0.0 0.25
1.25 0.75 0.25
9.75 0.25 0.0
1.75 0.25 0.0
7.75 0.0 0.0
2.25 0.0 0.75
7.25 0.0 0.75
1.25 0.5 0.75
8.75 0.25 0.25
7.75 0.25 0.5
7.25 0.75 0.25
5.25 0.75 0.5
5.75 0.25 0.5
2.25 0.75 0.5
3.75 0.25 0.5
7.75 0.75 0.25
6.25 0.25 0.5
6.75 0.5 0.0
3.25 0.25 0.75
1.75 0.75 0.5
2.75 0.0 0.75
6.25 0.0 0.75
4.75 0.25 0.75
4.25 0.0 0.5
2.75 0.5 0.75
3.25 0.25 0.25
3.75 0.25 0.75
3.25 0.5 0.25
9.75 0.75 0.0
4.75 0.75 0.75
3.25 0.75 0.0
5.75 0.5 0.0
6.25 0.5 0.0
5.25 0.0 0.75
0.75 0.25 0.75
2.25 0.0 0.25
9.75 0.25 0.25
6.75 0.0 0.25
0.25 0.0 0.0
7.75 0.75 0.75
0.25 0.5 0.75
0.25 0.0 0.5
2.75 0.75 0.5
8.75 0.5 0.0
3.75 0.75 0.25
8.75 0.25 0.5
4.25 0.5 0.5
6.25 0.75 0.75
4.75 0.75 0.0
5.75 0.25 0.25
4.25 0.75 0.0
8.25 0.75 0.25
1.25 0.75 0.0
3.25 0.0 0.25
1.25 0.0 0.75
5.75 0.75 0.5
2.25 0.5 0.75
1.25 0.0 0.25
4.75 0.25 0.5
9.75 0.75 0.5
1.75 0.25 0.75
0.25 0.25 0.75
5.25 0.0 0.5
9.25 0.5 0.25
5.75 0.0 0.0
6.75 0.5 0.75
3.75 0.75 0.0
3.25 0.0 0.5
0.75 0.0 0.75
1.75 0.0 0.75
9.75 0.5 0.0
2.75 0.25 0.5
1.25 0.0 0.0
9.25 0.25 0.75
7.75 0.25 0.75
6.25 0.0 0.0
8.25 0.0 0.0
9.75 0.5 0.5
9.25 0.25 0.5
6.75 0.25 0.5
4.25 0.0 0.0
3.75 0.75 0.5
6.25 0.5 0.75
4.25 0.75 0.5
4.25 0.5 0.75
1.75 0.25 0.5
8.75 0.0 0.5
8.25 0.75 0.0
4.75 0.75 0.25
4.75 0.75 0.5
4.25 0.75 0.25
1.75 0.75 0.0
4.25 0.75 0.75
4.75 0.5 0.5
6.25 0.25 0.0
0.75 0.5 0.0
1.25 0.75 0.5
8.25 0.25 0.0
1.75 0.5 0.25
6.75 0.5 0.5
0.25 0.75 0.5
7.25 0.5 0.25
9.25 0.75 0.5
5.75 0.25 0.0
1.75 0.75 0.25
6.75 0.75 0.5
5.75 0.75 0.25
0.75 0.75 0.5
9.25 0.0 0.0
2.75 0.5 0.5
2.75 0.75 0.75
7.75 0.75 0.0
7.25 0.0 0.0
0.25 0.25 0.25
1.75 0.0 0.0
3.25 0.0 0.0
5.25 0.25 0.75
1.75 0.5 0.75
1.25 0.5 0.0
1.25 0.0 0.5
5.75 0.75 0.75
6.25 0.75 0.0
8.25 0.5 0.5
3.75 0.0 0.75
7.25 0.25 0.0
0.25 0.5 0.0
9.25 0.75 0.75
2.75 0.5 0.0
4.25 0.5 0.25
7.75 0.5 0.0
5.25 0.25 0.25
7.25 0.25 0.5
8.75 0.75 0.0
5.25 0.25 0.0
9.75 0.0 0.0
8.75 0.75 0.25
4.25 0.0 0.25
3.25 0.25 0.0
9.25 0.75 0.0
5.25 0.5 0.25
1.25 0.5 0.5
9.75 0.75 0.75
5.25 0.5 0.5
6.25 0.75 0.5
7.75 0.75 0.5
6.75 0.25 0.75
1.75 0.5 0.0
7.25 0.75 0.75
2.25 0.75 0.0
0.75 0.5 0.5
7.25 0.0 0.25
3.25 0.5 0.0
8.75 0.5 0.75
6.75 0.25 0.0
8.75 0.75 0.75
5.25 0.5 0.0
3.25 0.5 0.75
8.75 0.0 0.0
2.25 0.25 0.5
0.25 0.25 0.5
0.25 0.75 0.75
9.75 0.25 0.75
2.25 0.25 0.25
2.25 0.75 0.25
6.25 0.0 0.5
2.25 0.25 0.75
7.75 0.0 0.5
6.25 0.25 0.25
4.75 0.5 0.0
7.25 0.75 0.5
[...]
POINT_DATA 1865
SCALARS d2 float 1
LOOKUP_TABLE default
2.370926670117565e-8
2.3876744837786683e-8
2.39388223584715e-8
2.3876745767827304e-8
2.3709289901142636e-8
2.4218291677579886e-8
2.438993196330087e-8
2.4452120954512135e-8
2.4389930656821475e-8
2.4218319336458366e-8
2.2900880784069364e-8
2.3064920955274172e-8
2.312554157365401e-8
2.30649189693623e-8
2.2900910221937798e-8
2.967074772945615e-8
2.984230273981612e-8
2.990439279025381e-8
2.984230174045772e-8
2.9670778473362712e-8
4.091241887096198e-8
4.107981770807255e-8
4.114206233889846e-8
4.1079819539474755e-8
4.091244558913316e-8
0.00013880625276384197
0.0001388672802558656
0.00013888576472695108
0.00013886727944856193
0.0001388062510804533
0.0001388544642655224
0.000138917383484676
0.00013893595361242576
0.00013891738266078653
0.00013885446256406105
0.00013916406656466285
0.00013922776226652693
0.00013924622932687432
0.00013922776141752247
0.0001391640648568959
0.0001399501745364831
0.00014001296016225647
0.00014003151960255883
0.0001400129593054092
0.00013995017270688266
0.00014097885572839954
0.00014103970117923997
0.00014105817794401472
0.0001410397003561505
0.00014097885333482776
0.0004815314602620892
0.00048159468771571826
0.0004816154733649769
0.00048159468607081746
0.0004815314569614187
0.0004815067011319724
0.00048156999381140497
0.0004815906597825273
0.00048156999216745783
0.0004815066978435933
0.00048183027381660734
0.0004818938349698751
0.00048191446288250485
0.0004818938333040839
0.00048183027047203814
0.000482593443974767
0.000482656707714016
0.0004826773671996579
0.00048265670602443047
0.0004825934405487996
0.00048369473448748364
0.0004837579205300463
0.00048377869888954934
0.0004837579188631863
0.0004836947305001957
0.0009953213776977563
0.0009953757798416302
0.0009953939587525155
0.0009953757774946535
0.000995321373008633
0.0009953291768607913
0.000995383624313526
0.0009954018039567605
0.0009953836219629445
0.0009953291721544744
0.000995639035379364
0.0009956935349845655
0.0009957117230142989
0.000995693532614261
0.000995639030623557
0.0009963433066217716
0.0009963977524884192
0.0009964159312632215
0.0009963977500954619
0.00099634330178258
0.0009973471739175934
0.0009974015754143709
0.0009974197529761513
0.0009974015730472852
0.000997347168567937
0.0016532332711655991
0.001653278758915638
0.001653293980304723
0.0016532787559360735
0.0016532332652072247
0.0016532396604059668
0.0016532851572679703
0.0016533003756836126
0.0016532851542867609
0.0016532396544412051
0.001653530355324095
0.0016535758675624047
0.001653591085339242
0.0016535758645624538
0.0016535303493103327
0.001654192041332104
0.0016542375380977359
0.001654252756407135
0.0016542375350762223
0.0016541920352421834
0.0016551381409472508
0.001655183628143964
0.0016551988495502167
0.0016551836251452083
0.0016551381343679686
0.0024309881059632974
0.0024310255732322393
0.002431038123112881
0.002431025569697348
0.002430988098895647
0.0024310009721675843
0.002431038447351921
0.0024310509965768407
0.0024310384438149223
0.0024310009650907807
0.0024312757813422835
0.00243131326881445
0.002431325818609383
0.0024313132652599694
0.002431275774220032
0.0024318938089872774
0.002431931284230672
0.0024319438334726006
0.0024319312806559985
0.0024318938017930322
0.002432773757107036
0.0024328112246013653
0.002432823774458845
0.002432811221048589
0.0024327737494570408
0.0033072804004398923
0.0033073108407276827
0.0033073210433624493
0.0033073108367056327
0.0033072803923973014
0.0033072965153842296
0.0033073269633574452
0.0033073371655992674
0.003307326959333593
0.0033072965073340788
0.003307554373860107
0.0033075848320167356
0.0033075950344985706
0.0033075848279765577
0.0033075543657674206
0.0033081298450839333
0.0033081602930441385
0.003308170495277492
0.003308160288985085
0.0033081298369241965
0.003308947071358811
0.0033089775116032366
0.0033089877142351964
0.003308977507564457
0.0033089470627727345
0.00426345189072279
0.004263476239120798
0.004263484407084694
0.004263476234676482
0.004263451881835707
0.004263470880788982
0.004263495236000031
0.004263503403543707
0.004263495231553997
0.004263470871894621
0.004263711668355107
0.0042637360331513885
0.004263744200973384
0.0042637360286902
0.004263711659421247
0.004264244690621595
0.004264269045834136
0.0042642772133767715
0.004264269041355413
0.004264244681625446
0.004264999507997733
0.004265023856419591
0.004265032024372457
0.004265023851959744
0.004264999498605973
0.0052833519427283315
0.005283371069722813
0.005283377492863103
0.005283371064916161
0.005283351933116409
0.0052833727927215635
0.005283391926049541
0.005283398348877984
0.005283391921241276
0.005283372783103028
0.005283596163725354
0.005283615305769124
0.005283621728883636
0.005283615300946891
0.005283596154070355
0.005284087078420804
0.005284106211746395
0.005284112634571764
0.005284106206908001
0.0052840870687083236
0.005284780514633602
0.005284799641632339
0.00528480606476478
0.0052847996368113465
0.005284780504555817
0.006353149418707684
0.006353164127859048
0.006353169074135134
0.006353164122745478
0.006353149408481841
0.006353171361854218
0.0063531860767276
0.00635319102273179
0.006353186071612574
0.006353171351622305
0.00635337706257828
0.006353391785408821
0.0063533967317021545
0.006353391780280951
0.006353377052312946
0.006353826123768697
0.006353840838641003
0.006353845784643097
0.006353840833498325
0.0063538261134506585
0.006354458942365762
0.0063544736515257355
0.0063544785977942
0.006354473646399045
0.006354458931712895
0.007461156531287871
0.007461167559218766
0.007461171274172184
0.007461167553849082
0.007461156520549676
0.007461178821628112
0.007461189854717651
0.0074611935694582215
0.007461189849346635
0.007461178810884411
0.007461366602871583
0.007461377643136324
0.007461381358170455
0.007461377637753647
0.007461366592097507
0.007461774059725493
0.007461785092813734
0.0074617888075523
0.007461785087417579
0.007461774048903483
0.007462347007490787
0.0074623580354281766
0.007462361750374971
0.007462358030046537
0.0074623469963643885
0.008597649654283161
0.008597657670651189
0.008597660377530108
0.008597657665071569
0.00859764964312501
0.008597671624549816
0.008597679645505368
0.00859768235222063
0.008597679639924555
0.008597671613386718
0.008597841264043074
0.00859784929140546
0.008597851998413966
0.008597849285814183
0.008597841252852637
0.008598207338843492
0.00859821535979799
0.008598218066511502
0.008598215354194541
0.00859820732760995
0.008598721082839711
0.008598729099213942
0.00859873180608696
0.00859872909362358
0.00859872107133218
0.009754690907027595
0.009754696514523847
0.009754698414244534
0.00975469650877591
0.009754690895532634
0.009754711953934347
0.009754717565455595
0.009754719465061117
0.009754717559706555
0.00975471194243499
0.009754863250537524
0.009754868867699856
0.009754870767596222
0.009754868861941518
0.009754863239013867
0.009755188144423443
0.009755193755943692
0.009755195655547715
0.009755193750174564
0.00975518813286147
0.009755643287987555
0.009755648895489327
0.009755650795204886
0.009755648889731822
0.009755643276182023
0.010925949543618828
0.010925953277968789
0.01092595454912565
0.010925953272089464
0.010925949531861039
0.010925969131601446
0.010925972869417266
0.010925974140504377
0.010925972863537008
0.010925969119839798
0.0109261019068
0.010926105649496337
0.010926106920869025
0.010926105643607895
0.010926101895017082
0.01092638579828547
0.010926389536100457
0.010926390807186298
0.010926389530202578
0.010926385786469012
0.010926782876968043
0.010926786611323014
0.010926787882475426
0.01092678660543532
0.010926782864938471
0.012106523391507362
0.012106525721470605
0.012106526520333068
0.012106525715492263
0.012106523379551398
0.012106541051776387
0.01210654338465067
0.012106544183486695
0.01210654337867148
0.012106541039817134
0.012106655149309087
0.012106657486307057
0.012106658285421457
0.012106657480320929
0.012106655137331612
0.012106898194655547
0.012106900527529135
0.012106901326364106
0.012106900521534902
0.012106898182649317
0.012107237677248583
0.012107240007216379
0.012107240806075115
0.012107240001230868
0.012107237665059667
0.013292760277432356
0.01329276160480379
0.013292762065317314
0.013292761598754213
0.013292760265333797
0.01329277560819958
0.013292776937930031
0.013292777398458688
0.01329277693187976
0.013292775596098233
0.013292870894100306
0.013292872227200783
0.013292872687998572
0.01329287222114467
0.013292870881983804
0.01329307322727366
0.0132930745570035
0.013293075017531353
0.01329307455094067
0.013293073215133136
0.013293355515564542
0.013293356842940363
0.013293357303450673
0.01329335683688479
0.013293355503271806
0.014482079457241573
0.014482080116847061
0.014482080350631255
0.01448208011074932
0.014482079445046606
0.014482092123763071
0.014482092785179028
0.014482093019018434
0.014482092779080746
0.014482092111565877
0.014482168486582202
0.014482169150617556
0.014482169384715887
0.014482169144514626
0.014482168474372878
0.014482330219032419
0.01448233088044798
0.014482331114286776
0.01448233087433963
0.014482330206803923
0.01448255564776317
0.014482556307371608
0.01448255654115363
0.014482556301269073
0.01448255563541287
0.015672793042084035
0.015672793301786336
0.015672793398134904
0.01567279329565896
0.015672793029829657
0.015672802776377566
0.015672803037341018
0.015672803133784496
0.015672803031213295
0.015672802764121592
0.015672860125765006
0.01567286038860062
0.015672860485290957
0.015672860382469345
0.0156728601134999
0.015672981347840537
0.015672981608803885
0.01567298170524667
0.01567298160266864
0.01567298133556104
0.01567315018499968
0.015673150444708808
0.015673150541054504
0.015673150438577872
0.015673150172628846
0.016863927434790704
0.016863927495362474
0.0168639275211925
0.0168639274892195
0.016863927422504865
0.01686393403899991
0.01686393410030676
0.016863934126260166
0.016863934094163424
0.016863934026712976
0.01686397231011031
0.016863972372560168
0.016863972398745472
0.01686397236641453
0.01686397229781729
0.01686405308666318
0.016864053147968988
0.016864053173923615
0.016864053141820635
0.016864053074360563
0.016864165530080466
0.016864165590642466
0.01686416561647578
0.01686416558449705
0.01686416551771694
0.018055044748044174
0.018055044742682574
0.0180550447422399
0.018055044736533188
0.018055044735745554
0.01805504807692039
0.018055048071780322
0.0180550480715264
0.018055048065630797
0.018055048064621243
0.018055067163925576
0.018055067159285565
0.01805506715923444
0.018055067153134763
0.018055067151623208
0.018055107600758902
0.018055107595622115
0.01805510759536315
0.018055107589469988
0.018055107588451608
0.018055163795785603
0.01805516379047599
0.01805516379001662
0.01805516378432534
0.01805516378344718
0.019246066112027282
0.019246066102204862
0.01924606609664506
0.019246066096054337
0.019246066099726955
0.019246064795864964
0.019246064785771677
0.019246064780629638
0.019246064779621153
0.019246064783564137
0.019246062969795696
0.019246062959184546
0.01924606295424766
0.019246062953033743
0.019246062957493537
0.019246064795975543
0.01924606478586506
0.019246064780747085
0.01924606477971387
0.01924606478367205
0.019246066111916774
0.019246066101893167
0.019246066096411274
0.019246066095742864
0.019246066099611672
0.006903038808372966
0.009174040114293028
0.013887171392753896
0.00028735218808927175
0.015077347928304063
0.004766620153525285
0.015077414334078117
0.015077413904967349
0.018650562763022516
0.0002880657838865502
0.0037767437872807605
0.015077347934420032
0.013887172351155136
0.017459504113917487
0.017459499345828966
0.01626834513908844
0.002028851690023741
0.017459532616355772
0.0028589504341312412
0.0037772905959380446
0.01507741434019854
0.00690304681770082
0.00802658391235405
0.0020288655341527285
0.015077556422994798
0.016268400541546574
0.0028583517181732104
4.076385856885588e-5
0.006903254988769529
0.010339045770372396
0.009174037834768695
0.013887257595932262
0.0002873521893731804
0.0028580873348111324
0.0069030431147035255
0.018650594158021838
0.0013079083422245265
0.00028705080150626984
0.0002869448260694454
4.223383665949651e-5
0.013887257589848462
0.005812831871333968
0.0028580873386066102
0.004766378642490569
0.0002871164130271056
0.008026971906823922
0.015077348089653678
0.005812809390190556
0.009174058266683494
0.00476634974807456
0.016268352859029778
4.14634250357209e-5
0.010338883764035384
0.0007198758031032818
0.0186505644066865
0.0013078552103996909
0.0138871579640059
0.002028560887956184
0.01269911886165162
0.0007191460705604281
0.01626835299938939
0.013887172685547088
0.012699462051145999
0.008026975090316683
0.0091740605511762
0.002029506993445094
0.004766396953963831
0.013887440208306484
0.010338904700501611
0.011515466498391441
0.003776487027535122
0.0013089045155075998
0.002858075187435416
0.010338883758216302
0.006903059600237647
0.005812811916071865
0.002858351714359426
0.0037764870317837235
0.004766389690082855
0.0037767346413553372
0.018650594168628187
0.006903684600258954
0.003777263309310056
0.0091742108924064
0.01033903958749477
0.008026385491144192
0.00028701110930027824
0.002028560891227025
0.018650564396088143
0.011515329081170728
4.0720695993382125e-5
0.013887440202218493
4.2223052396407246e-5
4.0773542334743816e-5
0.0028589617679420296
0.016268400344930573
0.004767133743107919
0.016268353053580487
0.005813044927820435
0.010339349559344319
0.006903671817746208
0.009174058272356164
0.0058134939138477434
0.015077556267762415
0.0007198166887982201
0.0037764710495860054
0.0007188056713750305
0.009174566503561452
0.002028851686728608
0.0007188056733866445
0.006903063905734946
0.018650594153853867
0.0013079050966816226
4.1509235629688516e-5
0.008026388680891998
0.017459532633523678
0.009174031093750035
0.01151546947972476
0.004767112101303372
0.0037764801967696063
0.00028711641177096717
0.0013079083395455392
0.018650573965210637
0.002858098672414197
0.0007187467557869223
0.017459504107769766
0.013887172345077026
0.010338879155816244
0.015077336745629596
0.01865057395058828
0.017459504122712577
0.011515347902743778
0.005812789441209429
0.004767141002345737
0.010339044200898123
0.0058135163949861735
0.005813039271740331
0.0013079217672883085
0.01626834519970277
0.015077555835562417
0.006903684605534779
0.00690368890577573
0.005813510743592043
0.0013088379594198667
0.005813510738594228
0.0069032592939814695
0.010338898523638354
0.00028728523507624707
0.0007198954406695494
0.015077347502220062
0.001308201877295384
0.011515470501832298
4.222237416251959e-5
0.012699238653625822
0.01745959340843091
0.009174051525987582
0.0013088878477699063
0.011515734807510294
0.009174564224744056
0.0002881526996997767
0.017459499331283143
0.0028583630515457356
0.002858950430304174
0.013887439249905542
0.012699117085256117
4.150923602566918e-5
0.0013078584543610517
0.0037764437675056987
0.008026406425156188
0.0013082018745903985
0.0007190868320027547
0.00071882529977676
0.009174564219052876
0.010339344952215307
0.015077414495255029
0.004766371377638419
0.012699132884235548
4.21756989877283e-5
0.017459593393487627
0.002858317862202928
0.005813039276727609
0.01388725663369006
0.00802640643064089
0.012699135284191719
0.016268501668565444
0.008026396981653305
0.018650562778141352
0.016268501808924654
0.005812806263778919
0.0037764597408809983
0.017459593383933977
0.008026583917850778
0.000719165706588607
0.018650594151869815
0.00802658710106316
0.010339351129075441
0.013887440542697096
0.011515346880409658
0.0013081519623148654
0.012699462045114573
0.0020294517863998635
0.00028737295696736596
0.012699118867669473
0.003776707339464048
0.016268400481370834
0.011515343904527981
0.016268501802781513
0.00802657446098978
0.003776734637089673
0.016268345006588275
0.002028584465469433
4.1519614662598116e-5
4.221200309094782e-5
0.018650564389937563
0.002028570621146331
0.0020294931491419074
0.01033888532856761
0.002028570617870873
0.013887159254296455
0.010338903136605876
0.00690324219757045
0.012699462665149708
0.011515329075237252
0.004766371382274107
0.00028713723733598574
0.012699119482172533
0.002858041354765379
0.0007191460725991545
0.018650562760869877
0.015077337175508132
0.008026376053591033
0.0020285195460135325
0.017459532642185374
0.004766368052915089
0.006903059605490598
0.01745953262737404
0.01745950409821491
0.009174037829098626
0.002028810314397115
0.003777290600216053
0.002858053494860624
0.004766627417088616
0.009174557478376408
0.0037764710453415395
0.002029493145832683
0.006903038813622683
0.011515469485668436
0.012699460265195806
0.012699134664166778
0.012699236863023933
0.013887257930127406
0.002858086526315296
0.005812806258809672
0.0020285747357538728
0.010339044206728959
0.011515330098137044
0.017459499354832334
0.01865057394871608
0.01269913467018638
4.221200350265492e-5
0.011515730809297131
0.011515733791113592
4.076385818226768e-5
0.004767133738441197
0.005812826219935854
0.016268501863115598
0.010338903130784505
0.011515326103497231
0.0007188276722436548
0.009174219924397854
0.016268352993251717
0.005813022437518019
0.013887158919477255
0.0013088878450495962
0.009174217640163247
0.008026409614136677
4.216628018752202e-5
0.018650573954867466
0.002858075191226432
0.0047663896947223484
0.00028813198640735387
0.008026962457837367
0.000287011110562712
0.017459499339681717
0.0037772997464267603
0.0028589165904032016
0.013887158913400366
0.000288131985106846
0.01626834514522537
4.222305281184151e-5
0.0013079250147792479
0.01626840048751168
0.0007188276742599031
0.01151534688634509
0.006903026032371664
0.0037764961780008058
0.018650564391909985
0.01745959339963865
0.010339349565182038
0.005812826214963103
0.009174217645846652
0.015077337331097174
0.008026971901318541
0.006903254994035747
0.012699238647599365
0.01151573378516399
0.004766598506083387
0.000718847314933501
0.00028703183683269394
0.0007187685526622235
0.002028529258566586
0.0013082185449886487
0.008026385496626022
0.015077337169393135
0.012699239267414952
0.015077556261638703
0.018650562767020235
0.0007198758010491637
0.001307905099365977
0.0047666201581805755
0.018055045344902237
0.0024310971011639237
0.00528380941084201
0.009755406088678947
0.006353572323405124
0.010926017427241731
0.014482082124256196
0.006353146497222115
0.00014036212623327952
0.006353166154678083
0.018055055247624574
0.004263942970851073
0.0016538614921012863
0.006353587043087024
0.003308560453868247
0.005283366067330521
0.019246063818709108
0.01686394817701628
0.010926229501368345
0.004263580430374295
0.00528336606252295
0.0004816886034515229
0.013292960624106731
0.006353161203330775
0.013292960618046773
0.0168641071309708
0.01329281180852468
0.012107063241933592
0.010926579767124134
0.010925951031541911
0.00013900366227818798
0.01924606576922286
0.00746125735469394
0.0001395392826466042
0.01805504533924515
0.015672913441904746
0.008598008743547911
0.007461257349318108
0.0004816045064905648
0.00014042367262545835
0.015672823894058052
0.00330855025130386
0.0016533850813233754
0.002430973851362978
0.008598453215497182
0.019246063803269653
0.000995999751269636
0.010925956038301043
0.0016538159876696226
0.019246065753199565
0.01092622576058104
0.015672824156184817
0.014482120808396781
0.008597660368982463
0.007461166291457266
0.01686410719175628
0.015673062651414896
0.01567291317977848
0.019246065754004796
0.0033078342380236415
0.008597740886425908
0.01329320992081092
0.019246063803306693
0.010925954761239962
0.015672913435771207
0.01329276216404035
0.013293208592619149
0.012106764393299801
0.01686400770083435
0.015672913538450017
0.002431593492516034
0.01210706404083281
0.002431580939513074
0.007462059143321875
0.009755411691843918
0.00330851980839994
0.006354148297080031
0.006353587037949748
0.00975541359734114
0.01686394823290857
0.01448243902716917
0.008598463940382939
0.009754772405731707
0.0016532604399578169
0.00013960277883428435
0.0004832000072550989
0.0024315434610642037
0.00014044219935573424
0.0016546439422444464
0.016863928559538804
0.018055055247459234
0.00048215252342783234
0.0016546894313399889
0.008597740892010854
0.00014042367177193212
0.014482239862121896
0.009755004886029595
0.014482239856015933